 vasp.5.3.3 18Dez12 (build Oct 11 2014 18:16:19) complex                        
  
 executed on             LinuxIFC date 2017.01.05  17:32:51
 running on   16 total cores
 distrk:  each k-point on   16 cores,    1 groups
 distr:  one band on NCORES_PER_BAND=   1 cores,   16 groups


--------------------------------------------------------------------------------------------------------


 INCAR:
 POTCAR:    PAW_PBE C 08Apr2002                   

 ----------------------------------------------------------------------------- 
|                                                                             |
|           W    W    AA    RRRRR   N    N  II  N    N   GGGG   !!!           |
|           W    W   A  A   R    R  NN   N  II  NN   N  G    G  !!!           |
|           W    W  A    A  R    R  N N  N  II  N N  N  G       !!!           |
|           W WW W  AAAAAA  RRRRR   N  N N  II  N  N N  G  GGG   !            |
|           WW  WW  A    A  R   R   N   NN  II  N   NN  G    G                |
|           W    W  A    A  R    R  N    N  II  N    N   GGGG   !!!           |
|                                                                             |
|      For optimal performance we recommend that you set                      |
|        NPAR = 4 - approx SQRT( number of cores)                             |
|      (number of cores/NPAR must be integer)                                 |
|      This setting will greatly improve the performance of VASP for DFT.     |
|      The default NPAR=number of cores might be grossly inefficient          |
|      on modern multi-core architectures or massively parallel machines.     |
|      Do your own testing.                                                   |
|      Unfortunately you need to use the default for hybrid, GW and RPA       |
|      calculations.                                                          |
|                                                                             |
 ----------------------------------------------------------------------------- 

 POTCAR:    PAW_PBE C 08Apr2002                   
   VRHFIN =C: s2p2                                                              
   LEXCH  = PE                                                                  
   EATOM  =   147.1560 eV,   10.8157 Ry                                         
                                                                                
   TITEL  = PAW_PBE C 08Apr2002                                                 
   LULTRA =        F    use ultrasoft PP ?                                      
   IUNSCR =        1    unscreen: 0-lin 1-nonlin 2-no                           
   RPACOR =    1.200    partial core radius                                     
   POMASS =   12.011; ZVAL   =    4.000    mass and valenz                      
   RCORE  =    1.500    outmost cutoff radius                                   
   RWIGS  =    1.630; RWIGS  =    0.863    wigner-seitz radius (au A)           
   ENMAX  =  400.000; ENMIN  =  300.000 eV                                      
   ICORE  =        2    local potential                                         
   LCOR   =        T    correct aug charges                                     
   LPAW   =        T    paw PP                                                  
   EAUG   =  644.873                                                            
   DEXC   =    0.000                                                            
   RMAX   =    1.529    core radius for proj-oper                               
   RAUG   =    1.300    factor for augmentation sphere                          
   RDEP   =    1.501    radius for radial grids                                 
   RDEPT  =    1.300    core radius for aug-charge                              
                                                                                
   Atomic configuration                                                         
    4 entries                                                                   
     n  l   j            E        occ.                                          
     1  0  0.50      -273.3789   2.0000                                         
     2  0  0.50       -13.7508   2.0000                                         
     2  1  0.50        -5.2854   2.0000                                         
     3  2  1.50        -5.4423   0.0000                                         
   Description                                                                  
     l       E           TYP  RCUT    TYP  RCUT                                 
     0    -13.7508458     23  1.200                                             
     0     -8.2022199     23  1.200                                             
     1     -5.2854383     23  1.500                                             
     1     34.0145650     23  1.500                                             
     2     -5.4423304      7  1.500                                             
  local pseudopotential read in
  partial core-charges read in
  partial kinetic energy density read in
  atomic valenz-charges read in
  non local Contribution for L=           0  read in
    real space projection operators read in
  non local Contribution for L=           0  read in
    real space projection operators read in
  non local Contribution for L=           1  read in
    real space projection operators read in
  non local Contribution for L=           1  read in
    real space projection operators read in
    PAW grid and wavefunctions read in
 
   number of l-projection  operators is LMAX  =           4
   number of lm-projection operators is LMMAX =           8
 
  PAW_PBE C 08Apr2002                   :
 energy of atom  1       EATOM= -147.1560
 kinetic energy error for atom=    0.0016 (will be added to EATOM!!)
 
 
 POSCAR: Graphene                                
  positions in direct lattice
  No initial velocities read in
 exchange correlation table for  LEXCH =        8
   RHO(1)=    0.500       N(1)  =     2000
   RHO(2)=  100.500       N(2)  =     4000
 


--------------------------------------------------------------------------------------------------------


 ion  position               nearest neighbor table
   1  0.000  0.000  0.000-   2 1.42   2 1.42   2 1.42
   2  0.333  0.667  0.000-   1 1.42   1 1.42   1 1.42
 

IMPORTANT INFORMATION: All symmetrisations will be switched off!
NOSYMM: (Re-)initialisation of all symmetry stuff for point group C_1.

 
 
 KPOINTS: Automatic mesh                          

Automatic generation of k-mesh.
Space group operators:
 irot     det(A)      alpha        n_x        n_y        n_z      tau_x      tau_y      tau_z
    1     1.000000     0.000000     1.000000     0.000000     0.000000     0.000000     0.000000     0.000000
 
 Subroutine IBZKPT returns following result:
 ===========================================
 
 Found     74 irreducible k-points:
 
 Following reciprocal coordinates:
            Coordinates               Weight
  0.000000  0.000000  0.000000      1.000000
  0.083333  0.000000  0.000000      2.000000
  0.166667 -0.000000  0.000000      2.000000
  0.250000 -0.000000  0.000000      2.000000
  0.333333  0.000000  0.000000      2.000000
  0.416667 -0.000000  0.000000      2.000000
  0.500000 -0.000000  0.000000      1.000000
  0.000000  0.083333  0.000000      2.000000
  0.083333  0.083333  0.000000      2.000000
  0.166667  0.083333  0.000000      2.000000
  0.250000  0.083333  0.000000      2.000000
  0.333333  0.083333  0.000000      2.000000
  0.416667  0.083333  0.000000      2.000000
  0.500000  0.083333  0.000000      2.000000
 -0.416667  0.083333  0.000000      2.000000
 -0.333333  0.083333  0.000000      2.000000
 -0.250000  0.083333  0.000000      2.000000
 -0.166667  0.083333  0.000000      2.000000
 -0.083333  0.083333  0.000000      2.000000
 -0.000000  0.166667  0.000000      2.000000
  0.083333  0.166667  0.000000      2.000000
  0.166667  0.166667  0.000000      2.000000
  0.250000  0.166667  0.000000      2.000000
  0.333333  0.166667  0.000000      2.000000
  0.416667  0.166667  0.000000      2.000000
  0.500000  0.166667  0.000000      2.000000
 -0.416667  0.166667  0.000000      2.000000
 -0.333333  0.166667  0.000000      2.000000
 -0.250000  0.166667  0.000000      2.000000
 -0.166667  0.166667  0.000000      2.000000
 -0.083333  0.166667  0.000000      2.000000
 -0.000000  0.250000  0.000000      2.000000
  0.083333  0.250000  0.000000      2.000000
  0.166667  0.250000  0.000000      2.000000
  0.250000  0.250000  0.000000      2.000000
  0.333333  0.250000  0.000000      2.000000
  0.416667  0.250000  0.000000      2.000000
  0.500000  0.250000  0.000000      2.000000
 -0.416667  0.250000  0.000000      2.000000
 -0.333333  0.250000  0.000000      2.000000
 -0.250000  0.250000  0.000000      2.000000
 -0.166667  0.250000  0.000000      2.000000
 -0.083333  0.250000  0.000000      2.000000
  0.000000  0.333333  0.000000      2.000000
  0.083333  0.333333  0.000000      2.000000
  0.166667  0.333333  0.000000      2.000000
  0.250000  0.333333  0.000000      2.000000
  0.333333  0.333333  0.000000      2.000000
  0.416667  0.333333  0.000000      2.000000
  0.500000  0.333333  0.000000      2.000000
 -0.416667  0.333333  0.000000      2.000000
 -0.333333  0.333333  0.000000      2.000000
 -0.250000  0.333333  0.000000      2.000000
 -0.166667  0.333333  0.000000      2.000000
 -0.083333  0.333333  0.000000      2.000000
 -0.000000  0.416667  0.000000      2.000000
  0.083333  0.416667  0.000000      2.000000
  0.166667  0.416667  0.000000      2.000000
  0.250000  0.416667  0.000000      2.000000
  0.333333  0.416667  0.000000      2.000000
  0.416667  0.416667  0.000000      2.000000
  0.500000  0.416667  0.000000      2.000000
 -0.416667  0.416667  0.000000      2.000000
 -0.333333  0.416667  0.000000      2.000000
 -0.250000  0.416667  0.000000      2.000000
 -0.166667  0.416667  0.000000      2.000000
 -0.083333  0.416667  0.000000      2.000000
 -0.000000  0.500000  0.000000      1.000000
  0.083333  0.500000  0.000000      2.000000
  0.166667  0.500000  0.000000      2.000000
  0.250000  0.500000  0.000000      2.000000
  0.333333  0.500000  0.000000      2.000000
  0.416667  0.500000  0.000000      2.000000
  0.500000  0.500000  0.000000      1.000000
 
 Following cartesian coordinates:
            Coordinates               Weight
  0.000000  0.000000  0.000000      1.000000
  0.033875 -0.019558  0.000000      2.000000
  0.067751 -0.039116  0.000000      2.000000
  0.101626 -0.058674  0.000000      2.000000
  0.135501 -0.078232  0.000000      2.000000
  0.169377 -0.097790  0.000000      2.000000
  0.203252 -0.117348  0.000000      1.000000
  0.033875  0.019558  0.000000      2.000000
  0.067751  0.000000  0.000000      2.000000
  0.101626 -0.019558  0.000000      2.000000
  0.135501 -0.039116  0.000000      2.000000
  0.169377 -0.058674  0.000000      2.000000
  0.203252 -0.078232  0.000000      2.000000
  0.237127 -0.097790  0.000000      2.000000
 -0.135501  0.117348  0.000000      2.000000
 -0.101626  0.097790  0.000000      2.000000
 -0.067751  0.078232  0.000000      2.000000
 -0.033875  0.058674  0.000000      2.000000
  0.000000  0.039116  0.000000      2.000000
  0.067751  0.039116  0.000000      2.000000
  0.101626  0.019558  0.000000      2.000000
  0.135501  0.000000  0.000000      2.000000
  0.169377 -0.019558  0.000000      2.000000
  0.203252 -0.039116  0.000000      2.000000
  0.237127 -0.058674  0.000000      2.000000
  0.271003 -0.078232  0.000000      2.000000
 -0.101626  0.136906  0.000000      2.000000
 -0.067751  0.117348  0.000000      2.000000
 -0.033875  0.097790  0.000000      2.000000
  0.000000  0.078232  0.000000      2.000000
  0.033875  0.058674  0.000000      2.000000
  0.101626  0.058674  0.000000      2.000000
  0.135501  0.039116  0.000000      2.000000
  0.169377  0.019558  0.000000      2.000000
  0.203252  0.000000  0.000000      2.000000
  0.237127 -0.019558  0.000000      2.000000
  0.271003 -0.039116  0.000000      2.000000
  0.304878 -0.058674  0.000000      2.000000
 -0.067751  0.156463  0.000000      2.000000
 -0.033875  0.136906  0.000000      2.000000
  0.000000  0.117348  0.000000      2.000000
  0.033875  0.097790  0.000000      2.000000
  0.067751  0.078232  0.000000      2.000000
  0.135501  0.078232  0.000000      2.000000
  0.169377  0.058674  0.000000      2.000000
  0.203252  0.039116  0.000000      2.000000
  0.237127  0.019558  0.000000      2.000000
  0.271003  0.000000  0.000000      2.000000
  0.304878 -0.019558  0.000000      2.000000
  0.338753 -0.039116  0.000000      2.000000
 -0.033875  0.176021  0.000000      2.000000
  0.000000  0.156463  0.000000      2.000000
  0.033875  0.136906  0.000000      2.000000
  0.067751  0.117348  0.000000      2.000000
  0.101626  0.097790  0.000000      2.000000
  0.169377  0.097790  0.000000      2.000000
  0.203252  0.078232  0.000000      2.000000
  0.237127  0.058674  0.000000      2.000000
  0.271003  0.039116  0.000000      2.000000
  0.304878  0.019558  0.000000      2.000000
  0.338753  0.000000  0.000000      2.000000
  0.372629 -0.019558  0.000000      2.000000
  0.000000  0.195579  0.000000      2.000000
  0.033875  0.176021  0.000000      2.000000
  0.067751  0.156463  0.000000      2.000000
  0.101626  0.136906  0.000000      2.000000
  0.135501  0.117348  0.000000      2.000000
  0.203252  0.117348  0.000000      1.000000
  0.237127  0.097790  0.000000      2.000000
  0.271003  0.078232  0.000000      2.000000
  0.304878  0.058674  0.000000      2.000000
  0.338753  0.039116  0.000000      2.000000
  0.372629  0.019558  0.000000      2.000000
  0.406504  0.000000  0.000000      1.000000
 
 
 Subroutine IBZKPT_HF returns following result:
 ==============================================
 
 Found    144 k-points in 1st BZ
 the following    144 k-points will be used (e.g. in the exchange kernel)
 Following reciprocal coordinates:   # in IRBZ
  0.000000  0.000000  0.000000       1 t-inv F
  0.083333  0.000000  0.000000       2 t-inv F
  0.166667 -0.000000  0.000000       3 t-inv F
  0.250000 -0.000000  0.000000       4 t-inv F
  0.333333  0.000000  0.000000       5 t-inv F
  0.416667 -0.000000  0.000000       6 t-inv F
  0.500000 -0.000000  0.000000       7 t-inv F
  0.000000  0.083333  0.000000       8 t-inv F
  0.083333  0.083333  0.000000       9 t-inv F
  0.166667  0.083333  0.000000      10 t-inv F
  0.250000  0.083333  0.000000      11 t-inv F
  0.333333  0.083333  0.000000      12 t-inv F
  0.416667  0.083333  0.000000      13 t-inv F
  0.500000  0.083333  0.000000      14 t-inv F
 -0.416667  0.083333  0.000000      15 t-inv F
 -0.333333  0.083333  0.000000      16 t-inv F
 -0.250000  0.083333  0.000000      17 t-inv F
 -0.166667  0.083333  0.000000      18 t-inv F
 -0.083333  0.083333  0.000000      19 t-inv F
 -0.000000  0.166667  0.000000      20 t-inv F
  0.083333  0.166667  0.000000      21 t-inv F
  0.166667  0.166667  0.000000      22 t-inv F
  0.250000  0.166667  0.000000      23 t-inv F
  0.333333  0.166667  0.000000      24 t-inv F
  0.416667  0.166667  0.000000      25 t-inv F
  0.500000  0.166667  0.000000      26 t-inv F
 -0.416667  0.166667  0.000000      27 t-inv F
 -0.333333  0.166667  0.000000      28 t-inv F
 -0.250000  0.166667  0.000000      29 t-inv F
 -0.166667  0.166667  0.000000      30 t-inv F
 -0.083333  0.166667  0.000000      31 t-inv F
 -0.000000  0.250000  0.000000      32 t-inv F
  0.083333  0.250000  0.000000      33 t-inv F
  0.166667  0.250000  0.000000      34 t-inv F
  0.250000  0.250000  0.000000      35 t-inv F
  0.333333  0.250000  0.000000      36 t-inv F
  0.416667  0.250000  0.000000      37 t-inv F
  0.500000  0.250000  0.000000      38 t-inv F
 -0.416667  0.250000  0.000000      39 t-inv F
 -0.333333  0.250000  0.000000      40 t-inv F
 -0.250000  0.250000  0.000000      41 t-inv F
 -0.166667  0.250000  0.000000      42 t-inv F
 -0.083333  0.250000  0.000000      43 t-inv F
  0.000000  0.333333  0.000000      44 t-inv F
  0.083333  0.333333  0.000000      45 t-inv F
  0.166667  0.333333  0.000000      46 t-inv F
  0.250000  0.333333  0.000000      47 t-inv F
  0.333333  0.333333  0.000000      48 t-inv F
  0.416667  0.333333  0.000000      49 t-inv F
  0.500000  0.333333  0.000000      50 t-inv F
 -0.416667  0.333333  0.000000      51 t-inv F
 -0.333333  0.333333  0.000000      52 t-inv F
 -0.250000  0.333333  0.000000      53 t-inv F
 -0.166667  0.333333  0.000000      54 t-inv F
 -0.083333  0.333333  0.000000      55 t-inv F
 -0.000000  0.416667  0.000000      56 t-inv F
  0.083333  0.416667  0.000000      57 t-inv F
  0.166667  0.416667  0.000000      58 t-inv F
  0.250000  0.416667  0.000000      59 t-inv F
  0.333333  0.416667  0.000000      60 t-inv F
  0.416667  0.416667  0.000000      61 t-inv F
  0.500000  0.416667  0.000000      62 t-inv F
 -0.416667  0.416667  0.000000      63 t-inv F
 -0.333333  0.416667  0.000000      64 t-inv F
 -0.250000  0.416667  0.000000      65 t-inv F
 -0.166667  0.416667  0.000000      66 t-inv F
 -0.083333  0.416667  0.000000      67 t-inv F
 -0.000000  0.500000  0.000000      68 t-inv F
  0.083333  0.500000  0.000000      69 t-inv F
  0.166667  0.500000  0.000000      70 t-inv F
  0.250000  0.500000  0.000000      71 t-inv F
  0.333333  0.500000  0.000000      72 t-inv F
  0.416667  0.500000  0.000000      73 t-inv F
  0.500000  0.500000  0.000000      74 t-inv F
 -0.083333  0.000000  0.000000       2 t-inv T
 -0.166667  0.000000  0.000000       3 t-inv T
 -0.250000  0.000000  0.000000       4 t-inv T
 -0.333333  0.000000  0.000000       5 t-inv T
 -0.416667  0.000000  0.000000       6 t-inv T
  0.000000 -0.083333  0.000000       8 t-inv T
 -0.083333 -0.083333  0.000000       9 t-inv T
 -0.166667 -0.083333  0.000000      10 t-inv T
 -0.250000 -0.083333  0.000000      11 t-inv T
 -0.333333 -0.083333  0.000000      12 t-inv T
 -0.416667 -0.083333  0.000000      13 t-inv T
 -0.500000 -0.083333  0.000000      14 t-inv T
  0.416667 -0.083333  0.000000      15 t-inv T
  0.333333 -0.083333  0.000000      16 t-inv T
  0.250000 -0.083333  0.000000      17 t-inv T
  0.166667 -0.083333  0.000000      18 t-inv T
  0.083333 -0.083333  0.000000      19 t-inv T
  0.000000 -0.166667  0.000000      20 t-inv T
 -0.083333 -0.166667  0.000000      21 t-inv T
 -0.166667 -0.166667  0.000000      22 t-inv T
 -0.250000 -0.166667  0.000000      23 t-inv T
 -0.333333 -0.166667  0.000000      24 t-inv T
 -0.416667 -0.166667  0.000000      25 t-inv T
 -0.500000 -0.166667  0.000000      26 t-inv T
  0.416667 -0.166667  0.000000      27 t-inv T
  0.333333 -0.166667  0.000000      28 t-inv T
  0.250000 -0.166667  0.000000      29 t-inv T
  0.166667 -0.166667  0.000000      30 t-inv T
  0.083333 -0.166667  0.000000      31 t-inv T
  0.000000 -0.250000  0.000000      32 t-inv T
 -0.083333 -0.250000  0.000000      33 t-inv T
 -0.166667 -0.250000  0.000000      34 t-inv T
 -0.250000 -0.250000  0.000000      35 t-inv T
 -0.333333 -0.250000  0.000000      36 t-inv T
 -0.416667 -0.250000  0.000000      37 t-inv T
 -0.500000 -0.250000  0.000000      38 t-inv T
  0.416667 -0.250000  0.000000      39 t-inv T
  0.333333 -0.250000  0.000000      40 t-inv T
  0.250000 -0.250000  0.000000      41 t-inv T
  0.166667 -0.250000  0.000000      42 t-inv T
  0.083333 -0.250000  0.000000      43 t-inv T
  0.000000 -0.333333  0.000000      44 t-inv T
 -0.083333 -0.333333  0.000000      45 t-inv T
 -0.166667 -0.333333  0.000000      46 t-inv T
 -0.250000 -0.333333  0.000000      47 t-inv T
 -0.333333 -0.333333  0.000000      48 t-inv T
 -0.416667 -0.333333  0.000000      49 t-inv T
 -0.500000 -0.333333  0.000000      50 t-inv T
  0.416667 -0.333333  0.000000      51 t-inv T
  0.333333 -0.333333  0.000000      52 t-inv T
  0.250000 -0.333333  0.000000      53 t-inv T
  0.166667 -0.333333  0.000000      54 t-inv T
  0.083333 -0.333333  0.000000      55 t-inv T
  0.000000 -0.416667  0.000000      56 t-inv T
 -0.083333 -0.416667  0.000000      57 t-inv T
 -0.166667 -0.416667  0.000000      58 t-inv T
 -0.250000 -0.416667  0.000000      59 t-inv T
 -0.333333 -0.416667  0.000000      60 t-inv T
 -0.416667 -0.416667  0.000000      61 t-inv T
 -0.500000 -0.416667  0.000000      62 t-inv T
  0.416667 -0.416667  0.000000      63 t-inv T
  0.333333 -0.416667  0.000000      64 t-inv T
  0.250000 -0.416667  0.000000      65 t-inv T
  0.166667 -0.416667  0.000000      66 t-inv T
  0.083333 -0.416667  0.000000      67 t-inv T
 -0.083333 -0.500000  0.000000      69 t-inv T
 -0.166667 -0.500000  0.000000      70 t-inv T
 -0.250000 -0.500000  0.000000      71 t-inv T
 -0.333333 -0.500000  0.000000      72 t-inv T
 -0.416667 -0.500000  0.000000      73 t-inv T


--------------------------------------------------------------------------------------------------------




 Dimension of arrays:
   k-points           NKPTS =     74   k-points in BZ     NKDIM =     74   number of bands    NBANDS=     16
   number of dos      NEDOS =    301   number of ions     NIONS =      2
   non local maximal  LDIM  =      4   non local SUM 2l+1 LMDIM =      8
   total plane-waves  NPLWV = 110592
   max r-space proj   IRMAX =      1   max aug-charges    IRDMAX=   2671
   dimension x,y,z NGX =    24 NGY =   24 NGZ =  192
   dimension x,y,z NGXF=    28 NGYF=   28 NGZF=  224
   support grid    NGXF=    28 NGYF=   28 NGZF=  224
   ions per type =               2
 NGX,Y,Z   is equivalent  to a cutoff of  16.22, 16.22, 15.96 a.u.
 NGXF,Y,Z  is equivalent  to a cutoff of  18.92, 18.92, 18.62 a.u.


 I would recommend the setting:
   dimension x,y,z NGX =    23 NGY =   23 NGZ =  184
 SYSTEM =  graphene                                
 POSCAR =  Graphene                                

 Startparameter for this run:
   NWRITE =      2    write-flag & timer
   PREC   = high      normal or accurate (medium, high low for compatibility)
   ISTART =      0    job   : 0-new  1-cont  2-samecut
   ICHARG =      2    charge: 1-file 2-atom 10-const
   ISPIN  =      2    spin polarized calculation?
   LNONCOLLINEAR =      F non collinear calculations
   LSORBIT =      F    spin-orbit coupling
   INIWAV =      1    electr: 0-lowe 1-rand  2-diag
   LASPH  =      T    aspherical Exc in radial PAW
   METAGGA=      F    non-selfconsistent MetaGGA calc.

 Electronic Relaxation 1
   ENCUT  =  800.0 eV  58.80 Ry    7.67 a.u.   5.67  5.67 46.12*2*pi/ulx,y,z
   ENINI  =  800.0     initial cutoff
   ENAUG  =  644.9 eV  augmentation charge cutoff
   NELM   =    100;   NELMIN=  8; NELMDL= -5     # of ELM steps 
   EDIFF  = 0.1E-05   stopping-criterion for ELM
   LREAL  =      F    real-space projection
   NLSPLINE    = F    spline interpolate recip. space projectors
   LCOMPAT=      F    compatible to vasp.4.4
   GGA_COMPAT  = T    GGA compatible to vasp.4.4-vasp.4.6
   LMAXPAW     = -100 max onsite density
   LMAXMIX     =    4 max onsite mixed and CHGCAR
   VOSKOWN=      0    Vosko Wilk Nusair interpolation
   ROPT   =    0.00000
 Ionic relaxation
   EDIFFG = 0.1E-04   stopping-criterion for IOM
   NSW    =     61    number of steps for IOM
   NBLOCK =      1;   KBLOCK =      1    inner block; outer block 
   IBRION =      6    ionic relax: 0-MD 1-quasi-New 2-CG
   NFREE  =      2    steps in history (QN), initial steepest desc. (CG)
   ISIF   =      3    stress and relaxation
   IWAVPR =     11    prediction:  0-non 1-charg 2-wave 3-comb
   ISYM   =      0    0-nonsym 1-usesym 2-fastsym
   LCORR  =      T    Harris-Foulkes like correction to forces

   POTIM  = 0.0150    time-step for ionic-motion
   TEIN   =    0.0    initial temperature
   TEBEG  =    0.0;   TEEND  =   0.0 temperature during run
   SMASS  =  -3.00    Nose mass-parameter (am)
   estimated Nose-frequenzy (Omega)   =  0.10E-29 period in steps =****** mass=  -0.138E-27a.u.
   SCALEE = 1.0000    scale energy and forces
   NPACO  =    256;   APACO  = 16.0  distance and # of slots for P.C.
   PSTRESS=    0.0 pullay stress

  Mass of Ions in am
   POMASS =  12.01
  Ionic Valenz
   ZVAL   =   4.00
  Atomic Wigner-Seitz radii
   RWIGS  =  -1.00
  virtual crystal weights 
   VCA    =   1.00
   NELECT =       8.0000    total number of electrons
   NUPDOWN=      -1.0000    fix difference up-down

 DOS related values:
   EMIN   =  10.00;   EMAX   =-10.00  energy-range for DOS
   EFERMI =   0.00
   ISMEAR =     0;   SIGMA  =   0.02  broadening in eV -4-tet -1-fermi 0-gaus

 Electronic relaxation 2 (details)
   IALGO  =     38    algorithm
   LDIAG  =      T    sub-space diagonalisation (order eigenvalues)
   LSUBROT=      T    optimize rotation matrix (better conditioning)
   TURBO    =      0    0=normal 1=particle mesh
   IRESTART =      0    0=no restart 2=restart with 2 vectors
   NREBOOT  =      0    no. of reboots
   NMIN     =      0    reboot dimension
   EREF     =   0.00    reference energy to select bands
   IMIX   =      4    mixing-type and parameters
     AMIX     =   0.40;   BMIX     =  1.00
     AMIX_MAG =   1.60;   BMIX_MAG =  1.00
     AMIN     =   0.10
     WC   =   100.;   INIMIX=   1;  MIXPRE=   1;  MAXMIX= -45

 Intra band minimization:
   WEIMIN = 0.0010     energy-eigenvalue tresh-hold
   EBREAK =  0.16E-07  absolut break condition
   DEPER  =   0.30     relativ break condition  

   TIME   =   0.40     timestep for ELM

  volume/ion in A,a.u.               =      52.41       353.67
  Fermi-wavevector in a.u.,A,eV,Ry     =   0.694429  1.312281  6.561161  0.482232
  Thomas-Fermi vector in A             =   1.776920
 
 Write flags
   LWAVE  =      T    write WAVECAR
   LCHARG =      T    write CHGCAR
   LVTOT  =      F    write LOCPOT, total local potential
   LVHAR  =      F    write LOCPOT, Hartree potential only
   LELF   =      F    write electronic localiz. function (ELF)
   LORBIT =     11    0 simple, 1 ext, 2 COOP (PROOUT)


 Dipole corrections
   LMONO  =      F    monopole corrections only (constant potential shift)
   LDIPOL =      F    correct potential (dipole corrections)
   IDIPOL =      0    1-x, 2-y, 3-z, 4-all directions 
   EPSILON=  1.0000000 bulk dielectric constant

 Exchange correlation treatment:
   GGA     =    --    GGA type
   LEXCH   =     8    internal setting for exchange type
   VOSKOWN=      0    Vosko Wilk Nusair interpolation
   LHFCALC =     F    Hartree Fock is set to
   LHFONE  =     F    Hartree Fock one center treatment
   AEXX    =    0.0000 exact exchange contribution

 Linear response parameters
   LEPSILON=     F    determine dielectric tensor
   LRPA    =     F    only Hartree local field effects (RPA)
   LNABLA  =     F    use nabla operator in PAW spheres
   LVEL    =     F    velocity operator in full k-point grid
   LINTERFAST=   F  fast interpolation
   KINTER  =     0    interpolate to denser k-point grid
   CSHIFT  =0.1000    complex shift for real part using Kramers Kronig
   OMEGAMAX=  -1.0    maximum frequency
   DEG_THRESHOLD= 0.2000000E-02 threshold for treating states as degnerate
   RTIME   =    0.100 relaxation time in fs

 Orbital magnetization related:
   ORBITALMAG=     F  switch on orbital magnetization
   LCHIMAG   =     F  perturbation theory with respect to B field
   DQ        =  0.001000  dq finite difference perturbation B field



--------------------------------------------------------------------------------------------------------


 finite differences with symmetry
 charge density and potential will be updated during run
 spin polarized calculation
 Variant of blocked Davidson
 Davidson routine will perform the subspace rotation
 perform sub-space diagonalisation
    after iterative eigenvector-optimisation
 modified Broyden-mixing scheme, WC =      100.0
 initial mixing is a Kerker type mixing with AMIX =  0.4000 and BMIX =      1.0000
 Hartree-type preconditioning will be used
 using additional bands           12
 reciprocal scheme for non local part
 use partial core corrections
 calculate Harris-corrections to forces 
   (improved forces if not selfconsistent)
 use gradient corrections 
 use of overlap-Matrix (Vanderbilt PP)
 Gauss-broadening in eV      SIGMA  =   0.02


--------------------------------------------------------------------------------------------------------


  energy-cutoff  :      800.00
  volume of cell :      104.82
      direct lattice vectors                 reciprocal lattice vectors
     1.230000000 -2.130422493  0.000000000     0.406504065 -0.234695231  0.000000000
     1.230000000  2.130422493  0.000000000     0.406504065  0.234695231  0.000000000
     0.000000000  0.000000000 20.000000000     0.000000000  0.000000000  0.050000000

  length of vectors
     2.460000000  2.460000000 20.000000000     0.469390463  0.469390463  0.050000000


 
 k-points in units of 2pi/SCALE and weight: Automatic mesh                          
   0.00000000  0.00000000  0.00000000       0.007
   0.03387534 -0.01955794  0.00000000       0.014
   0.06775068 -0.03911587  0.00000000       0.014
   0.10162602 -0.05867381  0.00000000       0.014
   0.13550136 -0.07823174  0.00000000       0.014
   0.16937669 -0.09778968  0.00000000       0.014
   0.20325203 -0.11734762  0.00000000       0.007
   0.03387534  0.01955794  0.00000000       0.014
   0.06775068  0.00000000  0.00000000       0.014
   0.10162602 -0.01955794  0.00000000       0.014
   0.13550136 -0.03911587  0.00000000       0.014
   0.16937669 -0.05867381  0.00000000       0.014
   0.20325203 -0.07823174  0.00000000       0.014
   0.23712737 -0.09778968  0.00000000       0.014
  -0.13550136  0.11734762  0.00000000       0.014
  -0.10162602  0.09778968  0.00000000       0.014
  -0.06775068  0.07823174  0.00000000       0.014
  -0.03387534  0.05867381  0.00000000       0.014
   0.00000000  0.03911587  0.00000000       0.014
   0.06775068  0.03911587  0.00000000       0.014
   0.10162602  0.01955794  0.00000000       0.014
   0.13550136  0.00000000  0.00000000       0.014
   0.16937669 -0.01955794  0.00000000       0.014
   0.20325203 -0.03911587  0.00000000       0.014
   0.23712737 -0.05867381  0.00000000       0.014
   0.27100271 -0.07823174  0.00000000       0.014
  -0.10162602  0.13690555  0.00000000       0.014
  -0.06775068  0.11734762  0.00000000       0.014
  -0.03387534  0.09778968  0.00000000       0.014
   0.00000000  0.07823174  0.00000000       0.014
   0.03387534  0.05867381  0.00000000       0.014
   0.10162602  0.05867381  0.00000000       0.014
   0.13550136  0.03911587  0.00000000       0.014
   0.16937669  0.01955794  0.00000000       0.014
   0.20325203  0.00000000  0.00000000       0.014
   0.23712737 -0.01955794  0.00000000       0.014
   0.27100271 -0.03911587  0.00000000       0.014
   0.30487805 -0.05867381  0.00000000       0.014
  -0.06775068  0.15646349  0.00000000       0.014
  -0.03387534  0.13690555  0.00000000       0.014
   0.00000000  0.11734762  0.00000000       0.014
   0.03387534  0.09778968  0.00000000       0.014
   0.06775068  0.07823174  0.00000000       0.014
   0.13550136  0.07823174  0.00000000       0.014
   0.16937669  0.05867381  0.00000000       0.014
   0.20325203  0.03911587  0.00000000       0.014
   0.23712737  0.01955794  0.00000000       0.014
   0.27100271  0.00000000  0.00000000       0.014
   0.30487805 -0.01955794  0.00000000       0.014
   0.33875339 -0.03911587  0.00000000       0.014
  -0.03387534  0.17602142  0.00000000       0.014
   0.00000000  0.15646349  0.00000000       0.014
   0.03387534  0.13690555  0.00000000       0.014
   0.06775068  0.11734762  0.00000000       0.014
   0.10162602  0.09778968  0.00000000       0.014
   0.16937669  0.09778968  0.00000000       0.014
   0.20325203  0.07823174  0.00000000       0.014
   0.23712737  0.05867381  0.00000000       0.014
   0.27100271  0.03911587  0.00000000       0.014
   0.30487805  0.01955794  0.00000000       0.014
   0.33875339  0.00000000  0.00000000       0.014
   0.37262873 -0.01955794  0.00000000       0.014
   0.00000000  0.19557936  0.00000000       0.014
   0.03387534  0.17602142  0.00000000       0.014
   0.06775068  0.15646349  0.00000000       0.014
   0.10162602  0.13690555  0.00000000       0.014
   0.13550136  0.11734762  0.00000000       0.014
   0.20325203  0.11734762  0.00000000       0.007
   0.23712737  0.09778968  0.00000000       0.014
   0.27100271  0.07823174  0.00000000       0.014
   0.30487805  0.05867381  0.00000000       0.014
   0.33875339  0.03911587  0.00000000       0.014
   0.37262873  0.01955794  0.00000000       0.014
   0.40650407  0.00000000  0.00000000       0.007
 
 k-points in reciprocal lattice and weights: Automatic mesh                          
   0.00000000  0.00000000  0.00000000       0.007
   0.08333333  0.00000000  0.00000000       0.014
   0.16666667 -0.00000000  0.00000000       0.014
   0.25000000 -0.00000000  0.00000000       0.014
   0.33333333  0.00000000  0.00000000       0.014
   0.41666667 -0.00000000  0.00000000       0.014
   0.50000000 -0.00000000  0.00000000       0.007
   0.00000000  0.08333333  0.00000000       0.014
   0.08333333  0.08333333  0.00000000       0.014
   0.16666667  0.08333333  0.00000000       0.014
   0.25000000  0.08333333  0.00000000       0.014
   0.33333333  0.08333333  0.00000000       0.014
   0.41666667  0.08333333  0.00000000       0.014
   0.50000000  0.08333333  0.00000000       0.014
  -0.41666667  0.08333333  0.00000000       0.014
  -0.33333333  0.08333333  0.00000000       0.014
  -0.25000000  0.08333333  0.00000000       0.014
  -0.16666667  0.08333333  0.00000000       0.014
  -0.08333333  0.08333333  0.00000000       0.014
  -0.00000000  0.16666667  0.00000000       0.014
   0.08333333  0.16666667  0.00000000       0.014
   0.16666667  0.16666667  0.00000000       0.014
   0.25000000  0.16666667  0.00000000       0.014
   0.33333333  0.16666667  0.00000000       0.014
   0.41666667  0.16666667  0.00000000       0.014
   0.50000000  0.16666667  0.00000000       0.014
  -0.41666667  0.16666667  0.00000000       0.014
  -0.33333333  0.16666667  0.00000000       0.014
  -0.25000000  0.16666667  0.00000000       0.014
  -0.16666667  0.16666667  0.00000000       0.014
  -0.08333333  0.16666667  0.00000000       0.014
  -0.00000000  0.25000000  0.00000000       0.014
   0.08333333  0.25000000  0.00000000       0.014
   0.16666667  0.25000000  0.00000000       0.014
   0.25000000  0.25000000  0.00000000       0.014
   0.33333333  0.25000000  0.00000000       0.014
   0.41666667  0.25000000  0.00000000       0.014
   0.50000000  0.25000000  0.00000000       0.014
  -0.41666667  0.25000000  0.00000000       0.014
  -0.33333333  0.25000000  0.00000000       0.014
  -0.25000000  0.25000000  0.00000000       0.014
  -0.16666667  0.25000000  0.00000000       0.014
  -0.08333333  0.25000000  0.00000000       0.014
   0.00000000  0.33333333  0.00000000       0.014
   0.08333333  0.33333333  0.00000000       0.014
   0.16666667  0.33333333  0.00000000       0.014
   0.25000000  0.33333333  0.00000000       0.014
   0.33333333  0.33333333  0.00000000       0.014
   0.41666667  0.33333333  0.00000000       0.014
   0.50000000  0.33333333  0.00000000       0.014
  -0.41666667  0.33333333  0.00000000       0.014
  -0.33333333  0.33333333  0.00000000       0.014
  -0.25000000  0.33333333  0.00000000       0.014
  -0.16666667  0.33333333  0.00000000       0.014
  -0.08333333  0.33333333  0.00000000       0.014
  -0.00000000  0.41666667  0.00000000       0.014
   0.08333333  0.41666667  0.00000000       0.014
   0.16666667  0.41666667  0.00000000       0.014
   0.25000000  0.41666667  0.00000000       0.014
   0.33333333  0.41666667  0.00000000       0.014
   0.41666667  0.41666667  0.00000000       0.014
   0.50000000  0.41666667  0.00000000       0.014
  -0.41666667  0.41666667  0.00000000       0.014
  -0.33333333  0.41666667  0.00000000       0.014
  -0.25000000  0.41666667  0.00000000       0.014
  -0.16666667  0.41666667  0.00000000       0.014
  -0.08333333  0.41666667  0.00000000       0.014
  -0.00000000  0.50000000  0.00000000       0.007
   0.08333333  0.50000000  0.00000000       0.014
   0.16666667  0.50000000  0.00000000       0.014
   0.25000000  0.50000000  0.00000000       0.014
   0.33333333  0.50000000  0.00000000       0.014
   0.41666667  0.50000000  0.00000000       0.014
   0.50000000  0.50000000  0.00000000       0.007
 
 position of ions in fractional coordinates (direct lattice) 
   0.00000000  0.00000000  0.00000000
   0.33333333  0.66666667  0.00000000
 
 position of ions in cartesian coordinates  (Angst):
   0.00000000  0.00000000  0.00000000
   1.23000000  0.71014083  0.00000000
 


--------------------------------------------------------------------------------------------------------


 k-point  1 :   0.0000 0.0000 0.0000  plane waves:    5409
 k-point  2 :   0.0833 0.0000 0.0000  plane waves:    5405
 k-point  3 :   0.1667-0.0000 0.0000  plane waves:    5394
 k-point  4 :   0.2500-0.0000 0.0000  plane waves:    5404
 k-point  5 :   0.3333 0.0000 0.0000  plane waves:    5394
 k-point  6 :   0.4167-0.0000 0.0000  plane waves:    5386
 k-point  7 :   0.5000-0.0000 0.0000  plane waves:    5384
 k-point  8 :   0.0000 0.0833 0.0000  plane waves:    5405
 k-point  9 :   0.0833 0.0833 0.0000  plane waves:    5411
 k-point 10 :   0.1667 0.0833 0.0000  plane waves:    5405
 k-point 11 :   0.2500 0.0833 0.0000  plane waves:    5390
 k-point 12 :   0.3333 0.0833 0.0000  plane waves:    5361
 k-point 13 :   0.4167 0.0833 0.0000  plane waves:    5398
 k-point 14 :   0.5000 0.0833 0.0000  plane waves:    5398
 k-point 15 :  -0.4167 0.0833 0.0000  plane waves:    5361
 k-point 16 :  -0.3333 0.0833 0.0000  plane waves:    5390
 k-point 17 :  -0.2500 0.0833 0.0000  plane waves:    5405
 k-point 18 :  -0.1667 0.0833 0.0000  plane waves:    5411
 k-point 19 :  -0.0833 0.0833 0.0000  plane waves:    5405
 k-point 20 :  -0.0000 0.1667 0.0000  plane waves:    5394
 k-point 21 :   0.0833 0.1667 0.0000  plane waves:    5405
 k-point 22 :   0.1667 0.1667 0.0000  plane waves:    5412
 k-point 23 :   0.2500 0.1667 0.0000  plane waves:    5365
 k-point 24 :   0.3333 0.1667 0.0000  plane waves:    5371
 k-point 25 :   0.4167 0.1667 0.0000  plane waves:    5382
 k-point 26 :   0.5000 0.1667 0.0000  plane waves:    5371
 k-point 27 :  -0.4167 0.1667 0.0000  plane waves:    5365
 k-point 28 :  -0.3333 0.1667 0.0000  plane waves:    5412
 k-point 29 :  -0.2500 0.1667 0.0000  plane waves:    5405
 k-point 30 :  -0.1667 0.1667 0.0000  plane waves:    5394
 k-point 31 :  -0.0833 0.1667 0.0000  plane waves:    5411
 k-point 32 :  -0.0000 0.2500 0.0000  plane waves:    5404
 k-point 33 :   0.0833 0.2500 0.0000  plane waves:    5390
 k-point 34 :   0.1667 0.2500 0.0000  plane waves:    5365
 k-point 35 :   0.2500 0.2500 0.0000  plane waves:    5360
 k-point 36 :   0.3333 0.2500 0.0000  plane waves:    5356
 k-point 37 :   0.4167 0.2500 0.0000  plane waves:    5356
 k-point 38 :   0.5000 0.2500 0.0000  plane waves:    5360
 k-point 39 :  -0.4167 0.2500 0.0000  plane waves:    5365
 k-point 40 :  -0.3333 0.2500 0.0000  plane waves:    5390
 k-point 41 :  -0.2500 0.2500 0.0000  plane waves:    5404
 k-point 42 :  -0.1667 0.2500 0.0000  plane waves:    5405
 k-point 43 :  -0.0833 0.2500 0.0000  plane waves:    5405
 k-point 44 :   0.0000 0.3333 0.0000  plane waves:    5394
 k-point 45 :   0.0833 0.3333 0.0000  plane waves:    5361
 k-point 46 :   0.1667 0.3333 0.0000  plane waves:    5371
 k-point 47 :   0.2500 0.3333 0.0000  plane waves:    5356
 k-point 48 :   0.3333 0.3333 0.0000  plane waves:    5334
 k-point 49 :   0.4167 0.3333 0.0000  plane waves:    5356
 k-point 50 :   0.5000 0.3333 0.0000  plane waves:    5371
 k-point 51 :  -0.4167 0.3333 0.0000  plane waves:    5361
 k-point 52 :  -0.3333 0.3333 0.0000  plane waves:    5394
 k-point 53 :  -0.2500 0.3333 0.0000  plane waves:    5390
 k-point 54 :  -0.1667 0.3333 0.0000  plane waves:    5412
 k-point 55 :  -0.0833 0.3333 0.0000  plane waves:    5390
 k-point 56 :  -0.0000 0.4167 0.0000  plane waves:    5386
 k-point 57 :   0.0833 0.4167 0.0000  plane waves:    5398
 k-point 58 :   0.1667 0.4167 0.0000  plane waves:    5382
 k-point 59 :   0.2500 0.4167 0.0000  plane waves:    5356
 k-point 60 :   0.3333 0.4167 0.0000  plane waves:    5356
 k-point 61 :   0.4167 0.4167 0.0000  plane waves:    5382
 k-point 62 :   0.5000 0.4167 0.0000  plane waves:    5398
 k-point 63 :  -0.4167 0.4167 0.0000  plane waves:    5386
 k-point 64 :  -0.3333 0.4167 0.0000  plane waves:    5361
 k-point 65 :  -0.2500 0.4167 0.0000  plane waves:    5365
 k-point 66 :  -0.1667 0.4167 0.0000  plane waves:    5365
 k-point 67 :  -0.0833 0.4167 0.0000  plane waves:    5361
 k-point 68 :  -0.0000 0.5000 0.0000  plane waves:    5384
 k-point 69 :   0.0833 0.5000 0.0000  plane waves:    5398
 k-point 70 :   0.1667 0.5000 0.0000  plane waves:    5371
 k-point 71 :   0.2500 0.5000 0.0000  plane waves:    5360
 k-point 72 :   0.3333 0.5000 0.0000  plane waves:    5371
 k-point 73 :   0.4167 0.5000 0.0000  plane waves:    5398
 k-point 74 :   0.5000 0.5000 0.0000  plane waves:    5384

 maximum and minimum number of plane-waves per node :      5412     5334

 maximum number of plane-waves:      5412
 maximum index in each direction: 
   IXMAX=    6   IYMAX=    5   IZMAX=   46
   IXMIN=   -6   IYMIN=   -6   IZMIN=  -46

 WARNING: aliasing errors must be expected set NGX to  26 to avoid them
 NGY is ok and might be reduce to  24
 NGZ is ok and might be reduce to 186
 aliasing errors are usually negligible using standard VASP settings
 and one can safely disregard these warnings

 serial   3D FFT for wavefunctions
 parallel 3D FFT for charge:
    minimum data exchange during FFTs selected (reduces bandwidth)


 total amount of memory used by VASP on root node    79301. kBytes
========================================================================

   base      :      30000. kBytes
   nonl-proj :      25861. kBytes
   fftplans  :       1864. kBytes
   grid      :       8683. kBytes
   one-center:         12. kBytes
   wavefun   :      12881. kBytes
 
 Broyden mixing: mesh for mixing (old mesh)
   NGX = 11   NGY = 11   NGZ = 93
  (NGX  = 28   NGY  = 28   NGZ  =224)
  gives a total of  11253 points

 initial charge density was supplied:
 charge density of overlapping atoms calculated
 number of electron       8.0000000 magnetization       2.0000000
 keeping initial charge density in first step


--------------------------------------------------------------------------------------------------------


 Maximum index for augmentation-charges          193 (set IRDMAX)


--------------------------------------------------------------------------------------------------------


 First call to EWALD:  gamma=   0.376
 Maximum number of real-space cells 5x 5x 1
 Maximum number of reciprocal cells 2x 2x10

 FEWALD executed in parallel
    FEWALD:  cpu time    0.00: real time    0.00


----------------------------------------- Iteration    1(   1)  ---------------------------------------


    POTLOK:  cpu time    0.04: real time    0.04
    SETDIJ:  cpu time    0.26: real time    0.26
     EDDAV:  cpu time    5.51: real time    5.51
       DOS:  cpu time    0.00: real time    0.00
    --------------------------------------------
      LOOP:  cpu time    5.82: real time    5.82

 eigenvalue-minimisations  :  4736
 total energy-change (2. order) : 0.3686657E+02  (-0.4005783E+03)
 number of electron       8.0000000 magnetization       2.0000000
 augmentation part        8.0000000 magnetization       2.0000000

 Free energy of the ion-electron system (eV)
  ---------------------------------------------------
  alpha Z        PSCENC =         3.13486870
  Ewald energy   TEWEN  =      1302.40940350
  -1/2 Hartree   DENC   =     -1514.62281173
  -exchange  EXHF       =         0.00000000
  -V(xc)+E(xc)   XCENC  =        26.72584033
  PAW double counting   =       216.78759577     -217.90869979
  entropy T*S    EENTRO =        -0.00043592
  eigenvalues    EBANDS =       -73.96803300
  atomic energy  EATOM  =       294.30884690
  ---------------------------------------------------
  free energy    TOTEN  =        36.86657477 eV

  energy without entropy =       36.86701070  energy(sigma->0) =       36.86679273


--------------------------------------------------------------------------------------------------------




----------------------------------------- Iteration    1(   2)  ---------------------------------------


     EDDAV:  cpu time    6.65: real time    6.65
       DOS:  cpu time    0.00: real time    0.00
    --------------------------------------------
      LOOP:  cpu time    6.65: real time    6.65

 eigenvalue-minimisations  :  6080
 total energy-change (2. order) :-0.5406017E+02  (-0.4790444E+02)
 number of electron       8.0000000 magnetization       2.0000000
 augmentation part        8.0000000 magnetization       2.0000000

 Free energy of the ion-electron system (eV)
  ---------------------------------------------------
  alpha Z        PSCENC =         3.13486870
  Ewald energy   TEWEN  =      1302.40940350
  -1/2 Hartree   DENC   =     -1514.62281173
  -exchange  EXHF       =         0.00000000
  -V(xc)+E(xc)   XCENC  =        26.72584033
  PAW double counting   =       216.78759577     -217.90869979
  entropy T*S    EENTRO =        -0.00000000
  eigenvalues    EBANDS =      -128.02864011
  atomic energy  EATOM  =       294.30884690
  ---------------------------------------------------
  free energy    TOTEN  =       -17.19359642 eV

  energy without entropy =      -17.19359642  energy(sigma->0) =      -17.19359642


--------------------------------------------------------------------------------------------------------




----------------------------------------- Iteration    1(   3)  ---------------------------------------


     EDDAV:  cpu time    7.17: real time    7.17
       DOS:  cpu time    0.00: real time    0.00
    --------------------------------------------
      LOOP:  cpu time    7.17: real time    7.18

 eigenvalue-minimisations  :  6624
 total energy-change (2. order) :-0.1754683E+01  (-0.1754683E+01)
 number of electron       8.0000000 magnetization       2.0000000
 augmentation part        8.0000000 magnetization       2.0000000

 Free energy of the ion-electron system (eV)
  ---------------------------------------------------
  alpha Z        PSCENC =         3.13486870
  Ewald energy   TEWEN  =      1302.40940350
  -1/2 Hartree   DENC   =     -1514.62281173
  -exchange  EXHF       =         0.00000000
  -V(xc)+E(xc)   XCENC  =        26.72584033
  PAW double counting   =       216.78759577     -217.90869979
  entropy T*S    EENTRO =        -0.00000000
  eigenvalues    EBANDS =      -129.78332314
  atomic energy  EATOM  =       294.30884690
  ---------------------------------------------------
  free energy    TOTEN  =       -18.94827945 eV

  energy without entropy =      -18.94827945  energy(sigma->0) =      -18.94827945


--------------------------------------------------------------------------------------------------------




----------------------------------------- Iteration    1(   4)  ---------------------------------------


     EDDAV:  cpu time    7.18: real time    7.18
       DOS:  cpu time    0.00: real time    0.00
    --------------------------------------------
      LOOP:  cpu time    7.18: real time    7.19

 eigenvalue-minimisations  :  6624
 total energy-change (2. order) :-0.5277941E-02  (-0.5277941E-02)
 number of electron       8.0000000 magnetization       2.0000000
 augmentation part        8.0000000 magnetization       2.0000000

 Free energy of the ion-electron system (eV)
  ---------------------------------------------------
  alpha Z        PSCENC =         3.13486870
  Ewald energy   TEWEN  =      1302.40940350
  -1/2 Hartree   DENC   =     -1514.62281173
  -exchange  EXHF       =         0.00000000
  -V(xc)+E(xc)   XCENC  =        26.72584033
  PAW double counting   =       216.78759577     -217.90869979
  entropy T*S    EENTRO =        -0.00000000
  eigenvalues    EBANDS =      -129.78860108
  atomic energy  EATOM  =       294.30884690
  ---------------------------------------------------
  free energy    TOTEN  =       -18.95355739 eV

  energy without entropy =      -18.95355739  energy(sigma->0) =      -18.95355739


--------------------------------------------------------------------------------------------------------




----------------------------------------- Iteration    1(   5)  ---------------------------------------


     EDDAV:  cpu time    6.77: real time    6.78
       DOS:  cpu time    0.00: real time    0.00
    CHARGE:  cpu time    0.68: real time    0.68
    MIXING:  cpu time    0.00: real time    0.00
    --------------------------------------------
      LOOP:  cpu time    7.45: real time    7.46

 eigenvalue-minimisations  :  6160
 total energy-change (2. order) :-0.9451320E-05  (-0.9451319E-05)
 number of electron       7.9999999 magnetization       1.7165359
 augmentation part        0.2145104 magnetization       1.6910252

 Broyden mixing:
  rms(total) = 0.91706E+00    rms(broyden)= 0.91706E+00
  rms(prec ) = 0.94841E+00
  weight for this iteration     100.00

 Free energy of the ion-electron system (eV)
  ---------------------------------------------------
  alpha Z        PSCENC =         3.13486870
  Ewald energy   TEWEN  =      1302.40940350
  -1/2 Hartree   DENC   =     -1514.62281173
  -exchange  EXHF       =         0.00000000
  -V(xc)+E(xc)   XCENC  =        26.72584033
  PAW double counting   =       216.78759577     -217.90869979
  entropy T*S    EENTRO =        -0.00000000
  eigenvalues    EBANDS =      -129.78861053
  atomic energy  EATOM  =       294.30884690
  ---------------------------------------------------
  free energy    TOTEN  =       -18.95356684 eV

  energy without entropy =      -18.95356684  energy(sigma->0) =      -18.95356684


--------------------------------------------------------------------------------------------------------




----------------------------------------- Iteration    1(   6)  ---------------------------------------


    POTLOK:  cpu time    0.04: real time    0.04
    SETDIJ:  cpu time    0.27: real time    0.27
     EDDAV:  cpu time    7.07: real time    7.08
       DOS:  cpu time    0.00: real time    0.00
    CHARGE:  cpu time    0.68: real time    0.68
    MIXING:  cpu time    0.00: real time    0.00
    --------------------------------------------
      LOOP:  cpu time    8.06: real time    8.07

 eigenvalue-minimisations  :  6496
 total energy-change (2. order) : 0.5734941E+01  (-0.9592743E+00)
 number of electron       7.9999998 magnetization       1.3867651
 augmentation part        0.2119150 magnetization       1.3489185

 Broyden mixing:
  rms(total) = 0.51828E+00    rms(broyden)= 0.51828E+00
  rms(prec ) = 0.54355E+00
  weight for this iteration     100.00

 eigenvalues of (default mixing * dielectric matrix)
  average eigenvalue GAMMA=   1.0667
  1.0667

 Free energy of the ion-electron system (eV)
  ---------------------------------------------------
  alpha Z        PSCENC =         3.13486870
  Ewald energy   TEWEN  =      1302.40940350
  -1/2 Hartree   DENC   =     -1525.93835609
  -exchange  EXHF       =         0.00000000
  -V(xc)+E(xc)   XCENC  =        30.86244865
  PAW double counting   =       398.91302945     -400.19837872
  entropy T*S    EENTRO =        -0.00000000
  eigenvalues    EBANDS =      -116.71048837
  atomic energy  EATOM  =       294.30884690
  ---------------------------------------------------
  free energy    TOTEN  =       -13.21862598 eV

  energy without entropy =      -13.21862598  energy(sigma->0) =      -13.21862598


--------------------------------------------------------------------------------------------------------




----------------------------------------- Iteration    1(   7)  ---------------------------------------


    POTLOK:  cpu time    0.04: real time    0.04
    SETDIJ:  cpu time    0.26: real time    0.26
     EDDAV:  cpu time    8.15: real time    8.17
       DOS:  cpu time    0.00: real time    0.00
    CHARGE:  cpu time    0.68: real time    0.68
    MIXING:  cpu time    0.00: real time    0.00
    --------------------------------------------
      LOOP:  cpu time    9.14: real time    9.16

 eigenvalue-minimisations  :  7680
 total energy-change (2. order) :-0.1593038E+01  (-0.1573366E+00)
 number of electron       7.9999999 magnetization       1.0475768
 augmentation part        0.2022026 magnetization       1.0107180

 Broyden mixing:
  rms(total) = 0.30952E+00    rms(broyden)= 0.30952E+00
  rms(prec ) = 0.31669E+00
  weight for this iteration     100.00

 eigenvalues of (default mixing * dielectric matrix)
  average eigenvalue GAMMA=   1.2996
  0.8681  1.7311

 Free energy of the ion-electron system (eV)
  ---------------------------------------------------
  alpha Z        PSCENC =         3.13486870
  Ewald energy   TEWEN  =      1302.40940350
  -1/2 Hartree   DENC   =     -1538.21405615
  -exchange  EXHF       =         0.00000000
  -V(xc)+E(xc)   XCENC  =        29.81842644
  PAW double counting   =       612.80696530     -614.19659264
  entropy T*S    EENTRO =        -0.00000000
  eigenvalues    EBANDS =      -104.87952592
  atomic energy  EATOM  =       294.30884690
  ---------------------------------------------------
  free energy    TOTEN  =       -14.81166387 eV

  energy without entropy =      -14.81166387  energy(sigma->0) =      -14.81166387


--------------------------------------------------------------------------------------------------------




----------------------------------------- Iteration    1(   8)  ---------------------------------------


    POTLOK:  cpu time    0.04: real time    0.04
    SETDIJ:  cpu time    0.26: real time    0.26
     EDDAV:  cpu time    7.31: real time    7.32
       DOS:  cpu time    0.00: real time    0.00
    CHARGE:  cpu time    0.68: real time    0.68
    MIXING:  cpu time    0.00: real time    0.00
    --------------------------------------------
      LOOP:  cpu time    8.30: real time    8.31

 eigenvalue-minimisations  :  6720
 total energy-change (2. order) :-0.1079307E+01  (-0.8327915E-01)
 number of electron       7.9999999 magnetization       0.8372563
 augmentation part        0.1959732 magnetization       0.8032240

 Broyden mixing:
  rms(total) = 0.19865E+00    rms(broyden)= 0.19865E+00
  rms(prec ) = 0.20083E+00
  weight for this iteration     100.00

 eigenvalues of (default mixing * dielectric matrix)
  average eigenvalue GAMMA=   1.3040
  2.1933  1.0456  0.6730

 Free energy of the ion-electron system (eV)
  ---------------------------------------------------
  alpha Z        PSCENC =         3.13486870
  Ewald energy   TEWEN  =      1302.40940350
  -1/2 Hartree   DENC   =     -1546.59887089
  -exchange  EXHF       =         0.00000000
  -V(xc)+E(xc)   XCENC  =        29.37958954
  PAW double counting   =       804.47622876     -805.89684110
  entropy T*S    EENTRO =        -0.00000000
  eigenvalues    EBANDS =       -97.10419643
  atomic energy  EATOM  =       294.30884690
  ---------------------------------------------------
  free energy    TOTEN  =       -15.89097102 eV

  energy without entropy =      -15.89097102  energy(sigma->0) =      -15.89097102


--------------------------------------------------------------------------------------------------------




----------------------------------------- Iteration    1(   9)  ---------------------------------------


    POTLOK:  cpu time    0.04: real time    0.04
    SETDIJ:  cpu time    0.26: real time    0.26
     EDDAV:  cpu time    6.49: real time    6.49
       DOS:  cpu time    0.00: real time    0.00
    CHARGE:  cpu time    0.68: real time    0.68
    MIXING:  cpu time    0.00: real time    0.00
    --------------------------------------------
      LOOP:  cpu time    7.48: real time    7.48

 eigenvalue-minimisations  :  5808
 total energy-change (2. order) :-0.7702738E+00  (-0.2619836E-01)
 number of electron       7.9999999 magnetization       0.5558381
 augmentation part        0.1943733 magnetization       0.5230151

 Broyden mixing:
  rms(total) = 0.14809E+00    rms(broyden)= 0.14809E+00
  rms(prec ) = 0.14994E+00
  weight for this iteration     100.00

 eigenvalues of (default mixing * dielectric matrix)
  average eigenvalue GAMMA=   1.4088
  2.5296  1.6168  0.8808  0.6081

 Free energy of the ion-electron system (eV)
  ---------------------------------------------------
  alpha Z        PSCENC =         3.13486870
  Ewald energy   TEWEN  =      1302.40940350
  -1/2 Hartree   DENC   =     -1548.66777850
  -exchange  EXHF       =         0.00000000
  -V(xc)+E(xc)   XCENC  =        28.90890360
  PAW double counting   =       860.92237636     -862.32244542
  entropy T*S    EENTRO =        -0.00000000
  eigenvalues    EBANDS =       -95.35541992
  atomic energy  EATOM  =       294.30884690
  ---------------------------------------------------
  free energy    TOTEN  =       -16.66124478 eV

  energy without entropy =      -16.66124478  energy(sigma->0) =      -16.66124478


--------------------------------------------------------------------------------------------------------




----------------------------------------- Iteration    1(  10)  ---------------------------------------


    POTLOK:  cpu time    0.04: real time    0.04
    SETDIJ:  cpu time    0.27: real time    0.27
     EDDAV:  cpu time    6.74: real time    6.74
       DOS:  cpu time    0.00: real time    0.00
    CHARGE:  cpu time    0.68: real time    0.68
    MIXING:  cpu time    0.00: real time    0.00
    --------------------------------------------
      LOOP:  cpu time    7.73: real time    7.73

 eigenvalue-minimisations  :  6112
 total energy-change (2. order) :-0.8545773E+00  (-0.4774531E-01)
 number of electron       7.9999999 magnetization       0.3330456
 augmentation part        0.1934688 magnetization       0.3030148

 Broyden mixing:
  rms(total) = 0.94126E-01    rms(broyden)= 0.94126E-01
  rms(prec ) = 0.95228E-01
  weight for this iteration     100.00

 eigenvalues of (default mixing * dielectric matrix)
  average eigenvalue GAMMA=   1.5211
  2.9960  2.1568  1.0220  0.8294  0.6014

 Free energy of the ion-electron system (eV)
  ---------------------------------------------------
  alpha Z        PSCENC =         3.13486870
  Ewald energy   TEWEN  =      1302.40940350
  -1/2 Hartree   DENC   =     -1550.01808561
  -exchange  EXHF       =         0.00000000
  -V(xc)+E(xc)   XCENC  =        28.33991005
  PAW double counting   =       891.96464160     -893.32864844
  entropy T*S    EENTRO =        -0.00000000
  eigenvalues    EBANDS =       -94.32675882
  atomic energy  EATOM  =       294.30884690
  ---------------------------------------------------
  free energy    TOTEN  =       -17.51582213 eV

  energy without entropy =      -17.51582213  energy(sigma->0) =      -17.51582213


--------------------------------------------------------------------------------------------------------




----------------------------------------- Iteration    1(  11)  ---------------------------------------


    POTLOK:  cpu time    0.04: real time    0.04
    SETDIJ:  cpu time    0.26: real time    0.26
     EDDAV:  cpu time    6.44: real time    6.47
       DOS:  cpu time    0.00: real time    0.00
    CHARGE:  cpu time    0.68: real time    0.68
    MIXING:  cpu time    0.00: real time    0.00
    --------------------------------------------
      LOOP:  cpu time    7.43: real time    7.46

 eigenvalue-minimisations  :  5728
 total energy-change (2. order) :-0.4850891E+00  (-0.2743872E-01)
 number of electron       8.0000000 magnetization       0.1161344
 augmentation part        0.1928970 magnetization       0.0878957

 Broyden mixing:
  rms(total) = 0.59665E-01    rms(broyden)= 0.59665E-01
  rms(prec ) = 0.60566E-01
  weight for this iteration     100.00

 eigenvalues of (default mixing * dielectric matrix)
  average eigenvalue GAMMA=   1.7781
  4.3414  2.3707  1.6067  0.9875  0.7559  0.6063

 Free energy of the ion-electron system (eV)
  ---------------------------------------------------
  alpha Z        PSCENC =         3.13486870
  Ewald energy   TEWEN  =      1302.40940350
  -1/2 Hartree   DENC   =     -1550.59816907
  -exchange  EXHF       =         0.00000000
  -V(xc)+E(xc)   XCENC  =        28.00013371
  PAW double counting   =       883.10934382     -884.45990466
  entropy T*S    EENTRO =        -0.00000000
  eigenvalues    EBANDS =       -93.90543413
  atomic energy  EATOM  =       294.30884690
  ---------------------------------------------------
  free energy    TOTEN  =       -18.00091123 eV

  energy without entropy =      -18.00091123  energy(sigma->0) =      -18.00091123


--------------------------------------------------------------------------------------------------------




----------------------------------------- Iteration    1(  12)  ---------------------------------------


    POTLOK:  cpu time    0.04: real time    0.04
    SETDIJ:  cpu time    0.26: real time    0.26
     EDDAV:  cpu time    6.72: real time    6.72
       DOS:  cpu time    0.00: real time    0.00
    CHARGE:  cpu time    0.68: real time    0.68
    MIXING:  cpu time    0.00: real time    0.00
    --------------------------------------------
      LOOP:  cpu time    7.71: real time    7.71

 eigenvalue-minimisations  :  6080
 total energy-change (2. order) :-0.2447226E+00  (-0.2038380E-01)
 number of electron       8.0000000 magnetization       0.0475825
 augmentation part        0.1924439 magnetization       0.0208004

 Broyden mixing:
  rms(total) = 0.20795E-01    rms(broyden)= 0.20795E-01
  rms(prec ) = 0.22170E-01
  weight for this iteration     100.00

 eigenvalues of (default mixing * dielectric matrix)
  average eigenvalue GAMMA=   2.0006
  6.2452  2.2057  2.2057  1.1064  0.9076  0.7242  0.6096

 Free energy of the ion-electron system (eV)
  ---------------------------------------------------
  alpha Z        PSCENC =         3.13486870
  Ewald energy   TEWEN  =      1302.40940350
  -1/2 Hartree   DENC   =     -1550.75353310
  -exchange  EXHF       =         0.00000000
  -V(xc)+E(xc)   XCENC  =        27.82162015
  PAW double counting   =       852.62131221     -853.97546948
  entropy T*S    EENTRO =        -0.00000598
  eigenvalues    EBANDS =       -93.81267673
  atomic energy  EATOM  =       294.30884690
  ---------------------------------------------------
  free energy    TOTEN  =       -18.24563383 eV

  energy without entropy =      -18.24562784  energy(sigma->0) =      -18.24563083


--------------------------------------------------------------------------------------------------------




----------------------------------------- Iteration    1(  13)  ---------------------------------------


    POTLOK:  cpu time    0.04: real time    0.04
    SETDIJ:  cpu time    0.26: real time    0.27
     EDDAV:  cpu time    6.95: real time    6.95
       DOS:  cpu time    0.00: real time    0.00
    CHARGE:  cpu time    0.68: real time    0.68
    MIXING:  cpu time    0.00: real time    0.00
    --------------------------------------------
      LOOP:  cpu time    7.94: real time    7.94

 eigenvalue-minimisations  :  6336
 total energy-change (2. order) :-0.1929998E+00  (-0.3038538E-02)
 number of electron       8.0000000 magnetization       0.0355414
 augmentation part        0.1921937 magnetization       0.0105978

 Broyden mixing:
  rms(total) = 0.79612E-02    rms(broyden)= 0.79610E-02
  rms(prec ) = 0.99932E-02
  weight for this iteration     100.00

 eigenvalues of (default mixing * dielectric matrix)
  average eigenvalue GAMMA=   1.9674
  6.7446  2.2980  2.2980  1.2759  0.9764  0.6144  0.8289  0.7026

 Free energy of the ion-electron system (eV)
  ---------------------------------------------------
  alpha Z        PSCENC =         3.13486870
  Ewald energy   TEWEN  =      1302.40940350
  -1/2 Hartree   DENC   =     -1550.65648246
  -exchange  EXHF       =         0.00000000
  -V(xc)+E(xc)   XCENC  =        27.63601570
  PAW double counting   =       845.32802672     -846.68789826
  entropy T*S    EENTRO =        -0.00004581
  eigenvalues    EBANDS =       -93.91136865
  atomic energy  EATOM  =       294.30884690
  ---------------------------------------------------
  free energy    TOTEN  =       -18.43863365 eV

  energy without entropy =      -18.43858784  energy(sigma->0) =      -18.43861075


--------------------------------------------------------------------------------------------------------




----------------------------------------- Iteration    1(  14)  ---------------------------------------


    POTLOK:  cpu time    0.04: real time    0.04
    SETDIJ:  cpu time    0.26: real time    0.27
     EDDAV:  cpu time    6.64: real time    6.65
       DOS:  cpu time    0.00: real time    0.00
    CHARGE:  cpu time    0.68: real time    0.68
    MIXING:  cpu time    0.00: real time    0.00
    --------------------------------------------
      LOOP:  cpu time    7.63: real time    7.64

 eigenvalue-minimisations  :  5984
 total energy-change (2. order) :-0.1738979E-01  (-0.2033393E-03)
 number of electron       8.0000000 magnetization       0.0297637
 augmentation part        0.1921569 magnetization       0.0055619

 Broyden mixing:
  rms(total) = 0.45828E-02    rms(broyden)= 0.45828E-02
  rms(prec ) = 0.63142E-02
  weight for this iteration     100.00

 eigenvalues of (default mixing * dielectric matrix)
  average eigenvalue GAMMA=   1.9136
  6.8426  2.3798  2.3798  1.5413  1.0845  0.9227  0.6182  0.7697  0.6835

 Free energy of the ion-electron system (eV)
  ---------------------------------------------------
  alpha Z        PSCENC =         3.13486870
  Ewald energy   TEWEN  =      1302.40940350
  -1/2 Hartree   DENC   =     -1550.38378577
  -exchange  EXHF       =         0.00000000
  -V(xc)+E(xc)   XCENC  =        27.61309949
  PAW double counting   =       845.42649790     -846.78769239
  entropy T*S    EENTRO =        -0.00006614
  eigenvalues    EBANDS =       -94.17719563
  atomic energy  EATOM  =       294.30884690
  ---------------------------------------------------
  free energy    TOTEN  =       -18.45602344 eV

  energy without entropy =      -18.45595730  energy(sigma->0) =      -18.45599037


--------------------------------------------------------------------------------------------------------




----------------------------------------- Iteration    1(  15)  ---------------------------------------


    POTLOK:  cpu time    0.04: real time    0.04
    SETDIJ:  cpu time    0.26: real time    0.26
     EDDAV:  cpu time    6.27: real time    6.29
       DOS:  cpu time    0.00: real time    0.00
    CHARGE:  cpu time    0.68: real time    0.68
    MIXING:  cpu time    0.00: real time    0.00
    --------------------------------------------
      LOOP:  cpu time    7.26: real time    7.28

 eigenvalue-minimisations  :  5552
 total energy-change (2. order) :-0.3282405E-02  (-0.7212753E-04)
 number of electron       8.0000000 magnetization       0.0264576
 augmentation part        0.1922165 magnetization       0.0031417

 Broyden mixing:
  rms(total) = 0.22063E-02    rms(broyden)= 0.22063E-02
  rms(prec ) = 0.32453E-02
  weight for this iteration     100.00

 eigenvalues of (default mixing * dielectric matrix)
  average eigenvalue GAMMA=   1.9625
  6.9272  2.7105  2.7105  2.0833  1.2911  1.0079  0.8762  0.6213  0.7352  0.6618

 Free energy of the ion-electron system (eV)
  ---------------------------------------------------
  alpha Z        PSCENC =         3.13486870
  Ewald energy   TEWEN  =      1302.40940350
  -1/2 Hartree   DENC   =     -1549.99796557
  -exchange  EXHF       =         0.00000000
  -V(xc)+E(xc)   XCENC  =        27.60021733
  PAW double counting   =       846.07663041     -847.43774027
  entropy T*S    EENTRO =        -0.00008651
  eigenvalues    EBANDS =       -94.55348033
  atomic energy  EATOM  =       294.30884690
  ---------------------------------------------------
  free energy    TOTEN  =       -18.45930584 eV

  energy without entropy =      -18.45921934  energy(sigma->0) =      -18.45926259


--------------------------------------------------------------------------------------------------------




----------------------------------------- Iteration    1(  16)  ---------------------------------------


    POTLOK:  cpu time    0.04: real time    0.04
    SETDIJ:  cpu time    0.27: real time    0.27
     EDDAV:  cpu time    6.01: real time    6.02
       DOS:  cpu time    0.00: real time    0.00
    CHARGE:  cpu time    0.69: real time    0.69
    MIXING:  cpu time    0.00: real time    0.00
    --------------------------------------------
      LOOP:  cpu time    7.01: real time    7.02

 eigenvalue-minimisations  :  5232
 total energy-change (2. order) :-0.1656897E-02  (-0.2799750E-04)
 number of electron       8.0000000 magnetization       0.0262046
 augmentation part        0.1922773 magnetization       0.0030881

 Broyden mixing:
  rms(total) = 0.10350E-02    rms(broyden)= 0.10350E-02
  rms(prec ) = 0.15596E-02
  weight for this iteration     100.00

 eigenvalues of (default mixing * dielectric matrix)
  average eigenvalue GAMMA=   1.9079
  6.9530  3.3471  2.3907  2.2417  1.3408  1.0365  0.8983  0.8031  0.7116  0.6232
  0.6406

 Free energy of the ion-electron system (eV)
  ---------------------------------------------------
  alpha Z        PSCENC =         3.13486870
  Ewald energy   TEWEN  =      1302.40940350
  -1/2 Hartree   DENC   =     -1549.69853287
  -exchange  EXHF       =         0.00000000
  -V(xc)+E(xc)   XCENC  =        27.59161576
  PAW double counting   =       846.65372994     -848.01469508
  entropy T*S    EENTRO =        -0.00009144
  eigenvalues    EBANDS =       -94.84610815
  atomic energy  EATOM  =       294.30884690
  ---------------------------------------------------
  free energy    TOTEN  =       -18.46096274 eV

  energy without entropy =      -18.46087130  energy(sigma->0) =      -18.46091702


--------------------------------------------------------------------------------------------------------




----------------------------------------- Iteration    1(  17)  ---------------------------------------


    POTLOK:  cpu time    0.04: real time    0.04
    SETDIJ:  cpu time    0.27: real time    0.26
     EDDAV:  cpu time    6.22: real time    6.22
       DOS:  cpu time    0.00: real time    0.00
    CHARGE:  cpu time    0.69: real time    0.69
    MIXING:  cpu time    0.00: real time    0.00
    --------------------------------------------
      LOOP:  cpu time    7.21: real time    7.22

 eigenvalue-minimisations  :  5488
 total energy-change (2. order) :-0.2160126E-03  (-0.3131827E-05)
 number of electron       8.0000000 magnetization       0.0254150
 augmentation part        0.1922856 magnetization       0.0023399

 Broyden mixing:
  rms(total) = 0.70715E-03    rms(broyden)= 0.70715E-03
  rms(prec ) = 0.11278E-02
  weight for this iteration     100.00

 eigenvalues of (default mixing * dielectric matrix)
  average eigenvalue GAMMA=   1.8947
  6.9587  3.6067  2.3593  2.1801  1.7261  1.2740  1.0098  0.8945  0.7682  0.7035
  0.6252  0.6305

 Free energy of the ion-electron system (eV)
  ---------------------------------------------------
  alpha Z        PSCENC =         3.13486870
  Ewald energy   TEWEN  =      1302.40940350
  -1/2 Hartree   DENC   =     -1549.63133400
  -exchange  EXHF       =         0.00000000
  -V(xc)+E(xc)   XCENC  =        27.59079420
  PAW double counting   =       846.73787948     -848.09902925
  entropy T*S    EENTRO =        -0.00009232
  eigenvalues    EBANDS =       -94.91251597
  atomic energy  EATOM  =       294.30884690
  ---------------------------------------------------
  free energy    TOTEN  =       -18.46117875 eV

  energy without entropy =      -18.46108643  energy(sigma->0) =      -18.46113259


--------------------------------------------------------------------------------------------------------




----------------------------------------- Iteration    1(  18)  ---------------------------------------


    POTLOK:  cpu time    0.04: real time    0.04
    SETDIJ:  cpu time    0.26: real time    0.27
     EDDAV:  cpu time    6.24: real time    6.24
       DOS:  cpu time    0.00: real time    0.00
    CHARGE:  cpu time    0.69: real time    0.69
    MIXING:  cpu time    0.00: real time    0.00
    --------------------------------------------
      LOOP:  cpu time    7.24: real time    7.24

 eigenvalue-minimisations  :  5536
 total energy-change (2. order) :-0.3078075E-03  (-0.6909468E-05)
 number of electron       8.0000000 magnetization       0.0247749
 augmentation part        0.1922884 magnetization       0.0018157

 Broyden mixing:
  rms(total) = 0.33925E-03    rms(broyden)= 0.33925E-03
  rms(prec ) = 0.56737E-03
  weight for this iteration     100.00

 eigenvalues of (default mixing * dielectric matrix)
  average eigenvalue GAMMA=   1.9636
  6.9964  4.3170  2.7653  2.3182  2.3182  1.3224  1.0378  0.8843  0.8843  0.7423
  0.6909  0.6214  0.6286

 Free energy of the ion-electron system (eV)
  ---------------------------------------------------
  alpha Z        PSCENC =         3.13486870
  Ewald energy   TEWEN  =      1302.40940350
  -1/2 Hartree   DENC   =     -1549.52354370
  -exchange  EXHF       =         0.00000000
  -V(xc)+E(xc)   XCENC  =        27.58982125
  PAW double counting   =       846.72476506     -848.08616610
  entropy T*S    EENTRO =        -0.00009499
  eigenvalues    EBANDS =       -95.01938717
  atomic energy  EATOM  =       294.30884690
  ---------------------------------------------------
  free energy    TOTEN  =       -18.46148656 eV

  energy without entropy =      -18.46139157  energy(sigma->0) =      -18.46143906


--------------------------------------------------------------------------------------------------------




----------------------------------------- Iteration    1(  19)  ---------------------------------------


    POTLOK:  cpu time    0.04: real time    0.04
    SETDIJ:  cpu time    0.27: real time    0.27
     EDDAV:  cpu time    6.22: real time    6.22
       DOS:  cpu time    0.00: real time    0.00
    CHARGE:  cpu time    0.69: real time    0.69
    MIXING:  cpu time    0.00: real time    0.00
    --------------------------------------------
      LOOP:  cpu time    7.21: real time    7.22

 eigenvalue-minimisations  :  5456
 total energy-change (2. order) :-0.5750588E-04  (-0.1572191E-05)
 number of electron       8.0000000 magnetization       0.0244819
 augmentation part        0.1922940 magnetization       0.0015836

 Broyden mixing:
  rms(total) = 0.21995E-03    rms(broyden)= 0.21995E-03
  rms(prec ) = 0.39254E-03
  weight for this iteration     100.00

 eigenvalues of (default mixing * dielectric matrix)
  average eigenvalue GAMMA=   1.9206
  7.0153  4.6183  2.9417  2.3045  2.3045  1.3230  1.0932  0.9403  0.9403  0.7842
  0.7127  0.6666  0.6123  0.6313

 Free energy of the ion-electron system (eV)
  ---------------------------------------------------
  alpha Z        PSCENC =         3.13486870
  Ewald energy   TEWEN  =      1302.40940350
  -1/2 Hartree   DENC   =     -1549.47615680
  -exchange  EXHF       =         0.00000000
  -V(xc)+E(xc)   XCENC  =        27.58924820
  PAW double counting   =       846.73587182     -848.09723997
  entropy T*S    EENTRO =        -0.00009634
  eigenvalues    EBANDS =       -95.06629007
  atomic energy  EATOM  =       294.30884690
  ---------------------------------------------------
  free energy    TOTEN  =       -18.46154406 eV

  energy without entropy =      -18.46144772  energy(sigma->0) =      -18.46149589


--------------------------------------------------------------------------------------------------------




----------------------------------------- Iteration    1(  20)  ---------------------------------------


    POTLOK:  cpu time    0.04: real time    0.04
    SETDIJ:  cpu time    0.26: real time    0.27
     EDDAV:  cpu time    5.77: real time    5.77
       DOS:  cpu time    0.00: real time    0.00
    CHARGE:  cpu time    0.69: real time    0.69
    MIXING:  cpu time    0.00: real time    0.00
    --------------------------------------------
      LOOP:  cpu time    6.77: real time    6.77

 eigenvalue-minimisations  :  4960
 total energy-change (2. order) :-0.2098262E-04  (-0.3096871E-06)
 number of electron       8.0000000 magnetization       0.0243405
 augmentation part        0.1922969 magnetization       0.0014655

 Broyden mixing:
  rms(total) = 0.15540E-03    rms(broyden)= 0.15540E-03
  rms(prec ) = 0.27523E-03
  weight for this iteration     100.00

 eigenvalues of (default mixing * dielectric matrix)
  average eigenvalue GAMMA=   2.0050
  7.0319  5.2610  3.2700  2.4335  2.4335  2.1071  1.3257  1.0452  0.9117  0.9117
  0.7602  0.7016  0.6428  0.6338  0.6048

 Free energy of the ion-electron system (eV)
  ---------------------------------------------------
  alpha Z        PSCENC =         3.13486870
  Ewald energy   TEWEN  =      1302.40940350
  -1/2 Hartree   DENC   =     -1549.44808862
  -exchange  EXHF       =         0.00000000
  -V(xc)+E(xc)   XCENC  =        27.58897607
  PAW double counting   =       846.75602110     -848.11735665
  entropy T*S    EENTRO =        -0.00009687
  eigenvalues    EBANDS =       -95.09413917
  atomic energy  EATOM  =       294.30884690
  ---------------------------------------------------
  free energy    TOTEN  =       -18.46156505 eV

  energy without entropy =      -18.46146817  energy(sigma->0) =      -18.46151661


--------------------------------------------------------------------------------------------------------




----------------------------------------- Iteration    1(  21)  ---------------------------------------


    POTLOK:  cpu time    0.04: real time    0.04
    SETDIJ:  cpu time    0.26: real time    0.27
     EDDAV:  cpu time    6.51: real time    6.51
       DOS:  cpu time    0.00: real time    0.00
    CHARGE:  cpu time    0.69: real time    0.69
    MIXING:  cpu time    0.00: real time    0.00
    --------------------------------------------
      LOOP:  cpu time    7.51: real time    7.51

 eigenvalue-minimisations  :  5840
 total energy-change (2. order) :-0.1296518E-04  (-0.2521250E-06)
 number of electron       8.0000000 magnetization       0.0243524
 augmentation part        0.1922988 magnetization       0.0014885

 Broyden mixing:
  rms(total) = 0.89791E-04    rms(broyden)= 0.89790E-04
  rms(prec ) = 0.14456E-03
  weight for this iteration     100.00

 eigenvalues of (default mixing * dielectric matrix)
  average eigenvalue GAMMA=   2.0004
  7.0355  5.6712  3.5811  2.5021  2.5021  2.2275  1.3134  1.1004  0.9638  0.9638
  0.8294  0.7460  0.6939  0.6378  0.6327  0.6057

 Free energy of the ion-electron system (eV)
  ---------------------------------------------------
  alpha Z        PSCENC =         3.13486870
  Ewald energy   TEWEN  =      1302.40940350
  -1/2 Hartree   DENC   =     -1549.41574678
  -exchange  EXHF       =         0.00000000
  -V(xc)+E(xc)   XCENC  =        27.58873390
  PAW double counting   =       846.73871578     -848.10005068
  entropy T*S    EENTRO =        -0.00009712
  eigenvalues    EBANDS =       -95.12625222
  atomic energy  EATOM  =       294.30884690
  ---------------------------------------------------
  free energy    TOTEN  =       -18.46157801 eV

  energy without entropy =      -18.46148089  energy(sigma->0) =      -18.46152945


--------------------------------------------------------------------------------------------------------




----------------------------------------- Iteration    1(  22)  ---------------------------------------


    POTLOK:  cpu time    0.04: real time    0.04
    SETDIJ:  cpu time    0.27: real time    0.27
     EDDAV:  cpu time    6.57: real time    6.57
       DOS:  cpu time    0.00: real time    0.00
[...]
     15      11.4549      0.00000
     16      14.0146      0.00000

 k-point  72 :       0.3333    0.5000    0.0000
  band No.  band energies     occupation 
      1     -17.8494      1.00000
      2     -14.1572      1.00000
      3     -10.8006      1.00000
      4      -5.3917      1.00000
      5      -0.1903      0.00000
      6       6.7248      0.00000
      7       7.3806      0.00000
      8       7.4774      0.00000
      9       8.0629      0.00000
     10       8.7592      0.00000
     11       9.3893      0.00000
     12      10.2667      0.00000
     13      11.1606      0.00000
     14      11.6053      0.00000
     15      11.6488      0.00000
     16      13.3542      0.00000

 k-point  73 :       0.4167    0.5000    0.0000
  band No.  band energies     occupation 
      1     -17.4297      1.00000
      2     -15.3344      1.00000
      3      -9.6499      1.00000
      4      -5.2022      1.00000
      5      -0.7616      0.00000
      6       5.4588      0.00000
      7       7.4045      0.00000
      8       8.2310      0.00000
      9       8.7505      0.00000
     10       9.4992      0.00000
     11       9.9266      0.00000
     12      10.0772      0.00000
     13      10.6484      0.00000
     14      11.4568      0.00000
     15      11.5212      0.00000
     16      12.1816      0.00000

 k-point  74 :       0.5000    0.5000    0.0000
  band No.  band energies     occupation 
      1     -17.0268      1.00000
      2     -16.0069      1.00000
      3      -9.1637      1.00000
      4      -5.0945      1.00000
      5      -1.0406      0.00000
      6       4.7178      0.00000
      7       8.4118      0.00000
      8       8.5651      0.00000
      9       9.2633      0.00000
     10       9.4599      0.00000
     11       9.8939      0.00000
     12       9.8988      0.00000
     13      10.5794      0.00000
     14      10.7506      0.00000
     15      11.1717      0.00000
     16      11.2066      0.00000


--------------------------------------------------------------------------------------------------------


 soft charge-density along one line, spin component           1
         0         1         2         3         4         5         6         7         8         9
 total charge-density along one line
 
 soft charge-density along one line, spin component           2
         0         1         2         3         4         5         6         7         8         9
 total charge-density along one line
 
 pseudopotential strength for first ion, spin component:           1
 10.217   0.000  13.587   0.000  -0.000   0.000  -0.000   0.000  -0.000   0.000   0.000   0.000   0.001   0.000   0.000   0.000
 13.587   0.000  18.067   0.000  -0.000   0.000  -0.000   0.000  -0.000   0.000   0.000   0.000   0.001   0.000   0.000   0.000
 -0.000   0.000  -0.000   0.000  -4.351   0.000  -0.000   0.000  -0.000   0.000   8.509   0.000   0.000   0.000   0.000   0.000
 -0.000   0.000  -0.000   0.000  -0.000   0.000  -4.330   0.000   0.000   0.000   0.000   0.000   8.476   0.000  -0.000   0.000
 -0.000   0.000  -0.000   0.000  -0.000   0.000   0.000   0.000  -4.351   0.000   0.000   0.000  -0.000   0.000   8.509   0.000
  0.000   0.000   0.000   0.000   8.509   0.000   0.000   0.000   0.000   0.000 -18.779   0.000  -0.000   0.000  -0.000   0.000
  0.001   0.000   0.001   0.000   0.000   0.000   8.476   0.000  -0.000   0.000  -0.000   0.000 -18.727   0.000   0.000   0.000
  0.000   0.000   0.000   0.000   0.000   0.000  -0.000   0.000   8.509   0.000  -0.000   0.000   0.000   0.000 -18.779   0.000
 pseudopotential strength for first ion, spin component:           2
 10.217   0.000  13.587   0.000  -0.000   0.000  -0.000   0.000   0.000   0.000   0.000   0.000   0.001   0.000  -0.000   0.000
 13.587   0.000  18.067   0.000  -0.000   0.000  -0.000   0.000   0.000   0.000   0.000   0.000   0.001   0.000  -0.000   0.000
 -0.000   0.000  -0.000   0.000  -4.351   0.000  -0.000   0.000   0.000   0.000   8.509   0.000   0.000   0.000  -0.000   0.000
 -0.000   0.000  -0.000   0.000  -0.000   0.000  -4.330   0.000  -0.000   0.000   0.000   0.000   8.476   0.000   0.000   0.000
  0.000   0.000   0.000   0.000   0.000   0.000  -0.000   0.000  -4.351   0.000  -0.000   0.000   0.000   0.000   8.509   0.000
  0.000   0.000   0.000   0.000   8.509   0.000   0.000   0.000  -0.000   0.000 -18.779   0.000  -0.000   0.000   0.000   0.000
  0.001   0.000   0.001   0.000   0.000   0.000   8.476   0.000   0.000   0.000  -0.000   0.000 -18.727   0.000  -0.000   0.000
 -0.000   0.000  -0.000   0.000  -0.000   0.000   0.000   0.000   8.509   0.000   0.000   0.000  -0.000   0.000 -18.779   0.000
 total augmentation occupancy for first ion, spin component:           1
  8.105  -3.595  -0.000  -0.025   0.000  -0.000  -0.004   0.000
 -3.595   1.653   0.000   0.019  -0.000   0.000   0.002  -0.000
 -0.000   0.000   1.835  -0.000  -0.000   0.172  -0.000   0.000
 -0.025   0.019  -0.000   1.199  -0.000  -0.000   0.073  -0.000
  0.000  -0.000  -0.000  -0.000   1.835   0.000  -0.000   0.172
 -0.000   0.000   0.172  -0.000   0.000   0.018  -0.000   0.000
 -0.004   0.002  -0.000   0.073  -0.000  -0.000   0.005  -0.000
  0.000  -0.000   0.000  -0.000   0.172   0.000  -0.000   0.018
 total augmentation occupancy for first ion, spin component:           2
 -0.000   0.000   0.000   0.000  -0.000   0.000   0.000  -0.000
  0.000  -0.000  -0.000  -0.000   0.000  -0.000  -0.000   0.000
  0.000  -0.000  -0.000   0.000  -0.000  -0.000   0.000  -0.000
  0.000  -0.000   0.000  -0.000   0.000   0.000  -0.000   0.000
 -0.000   0.000  -0.000   0.000  -0.000  -0.000   0.000  -0.000
  0.000  -0.000  -0.000   0.000  -0.000  -0.000  -0.000  -0.000
  0.000  -0.000   0.000  -0.000   0.000  -0.000  -0.000   0.000
 -0.000   0.000  -0.000   0.000  -0.000  -0.000   0.000  -0.000


------------------------ aborting loop because EDIFF is reached ----------------------------------------


 


 total charge     
 
# of ion     s       p       d       tot
----------------------------------------
  1        0.863   1.795   0.000   2.658
  2        0.863   1.795   0.000   2.658
------------------------------------------------
tot        1.727   3.590   0.000   5.317
 


 magnetization (x)
 
# of ion     s       p       d       tot
----------------------------------------
  1        0.000   0.000   0.000   0.000
  2       -0.000  -0.000   0.000  -0.000
------------------------------------------------
tot        0.000   0.000   0.000   0.000
 
    CHARGE:  cpu time    0.69: real time    0.69
    FORLOC:  cpu time    0.00: real time    0.00
    FORNL :  cpu time    0.15: real time    0.15
    STRESS:  cpu time    1.17: real time    1.17
    FORCOR:  cpu time    0.03: real time    0.03
    FORHAR:  cpu time    0.00: real time    0.00
    MIXING:  cpu time    0.00: real time    0.00

  FORCE on cell =-STRESS in cart. coord.  units (eV):
  Direction    XX          YY          ZZ          XY          YZ          ZX
  --------------------------------------------------------------------------------------
  Alpha Z     3.13487     3.13487     3.13487
  Ewald    1571.88057  1571.88057 -1841.38896     0.00000     0.00000    -0.00000
  Hartree  1538.09014  1538.09014 -1526.82286     0.00000     0.00000     0.00000
  E(xc)     -29.75470   -29.75470   -30.86931     0.00000    -0.00000     0.00000
  Local   -3195.50056 -3195.50049  3265.51651     0.00000    -0.00000    -0.00000
  n-local    -7.15792    -7.15793    -6.47758    -0.00000    -0.00000     0.00000
  augment    -0.78504    -0.78512    -0.72206     0.00000     0.00000     0.00000
  Kinetic   120.47179   120.47179   137.60281     0.00000     0.00000     0.00000
  Fock        0.00000     0.00000     0.00000     0.00000     0.00000     0.00000
  -------------------------------------------------------------------------------------
  Total       0.37914     0.37913    -0.02656     0.00000     0.00000    -0.00000
  in kB       5.79536     5.79512    -0.40606     0.00000     0.00000    -0.00000
  external pressure =        3.73 kB  Pullay stress =        0.00 kB


 VOLUME and BASIS-vectors are now :
 -----------------------------------------------------------------------------
  energy-cutoff  :      800.00
  volume of cell :      104.82
      direct lattice vectors                 reciprocal lattice vectors
     1.230000000 -2.130422493  0.000000000     0.406504065 -0.234695231  0.000000000
     1.230000000  2.130422493  0.000000000     0.406504065  0.234695231  0.000000000
     0.000000000  0.000000000 20.000000000     0.000000000  0.000000000  0.050000000

  length of vectors
     2.460000000  2.460000000 20.000000000     0.469390463  0.469390463  0.050000000


 FORCES acting on ions
    electron-ion (+dipol)            ewald-force                    non-local-force                 convergence-correction
 -----------------------------------------------------------------------------------------------
   -.180E-09 -.138E-05 -.480E+01   -.308E-11 0.100E-08 0.496E+01   0.383E-08 0.428E-05 -.402E+00   0.526E-08 0.253E-06 -.495E-02
   -.168E-07 0.255E-05 0.481E+01   0.308E-11 -.100E-08 -.496E+01   0.875E-08 -.746E-05 0.403E+00   0.230E-09 -.563E-06 -.516E-02
 -----------------------------------------------------------------------------------------------
   -.170E-07 0.117E-05 0.859E-02   0.162E-14 0.679E-15 0.000E+00   0.126E-07 -.318E-05 0.123E-02   0.549E-08 -.311E-06 -.101E-01
 
 
 POSITION                                       TOTAL-FORCE (eV/Angst)
 -----------------------------------------------------------------------------------
      0.00000      0.00000      0.00000         0.000000      0.000004     -0.251435
      1.23000      0.71014     -0.01500        -0.000000     -0.000004      0.251435
 -----------------------------------------------------------------------------------
    total drift:                                0.000000     -0.000002     -0.000299


--------------------------------------------------------------------------------------------------------



  FREE ENERGIE OF THE ION-ELECTRON SYSTEM (eV)
  ---------------------------------------------------
  free  energy   TOTEN  =       -18.45965884 eV

  energy  without entropy=      -18.45934541  energy(sigma->0) =      -18.45950212
 
 d Force =-0.1969005E-06[-0.754E-02, 0.754E-02]  d Energy =-0.1716194E-05 0.152E-05
 d Force = 0.0000000E+00[ 0.149E+00,-0.149E+00]  d Ewald  = 0.0000000E+00 0.000E+00


--------------------------------------------------------------------------------------------------------


    POTLOK:  cpu time    0.31: real time    0.31


--------------------------------------------------------------------------------------------------------


 Finite differences progress:
  Degree of freedom:  12/ 12
  Displacement:        2/  2
  Total:              24/ 24


--------------------------------------------------------------------------------------------------------



  ELASTIC MODULI  (kBar)
 Direction    XX          YY          ZZ          XY          YZ          ZX
 --------------------------------------------------------------------------------
 XX        1675.6403    444.6386      1.0666      0.0000      0.0000      0.0000
 YY         444.3155   1676.3736      1.1171     -0.0000      0.0000      0.0000
 ZZ          -0.0017      0.0284      0.0371     -0.0000     -0.0001     -0.0000
 XY           0.0105      0.0123     -0.0036    615.3383      0.0000     -0.0000
 YZ          -0.0154      0.0183      0.1696     -0.0733     -4.5383     -0.0014
 ZX          -0.1688      0.1154     -0.4372     -0.0428      0.0103      1.4917
 --------------------------------------------------------------------------------


  SYMMETRIZED ELASTIC MODULI (kBar)
 Direction    XX          YY          ZZ          XY          YZ          ZX
 --------------------------------------------------------------------------------
 XX        1675.6403    444.4771      0.5324      0.0053     -0.0077     -0.0844
 YY         444.4771   1676.3736      0.5728      0.0062      0.0091      0.0577
 ZZ           0.5324      0.5728      0.0371     -0.0018      0.0848     -0.2186
 XY           0.0053      0.0062     -0.0018    615.3383     -0.0366     -0.0214
 YZ          -0.0077      0.0091      0.0848     -0.0366     -4.5383      0.0044
 ZX          -0.0844      0.0577     -0.2186     -0.0214      0.0044      1.4917
 --------------------------------------------------------------------------------

 INTERNAL STRAIN TENSORS FROM STRAINED CELLS
 ============================================

 INTERNAL STRAIN TENSOR FOR ION    1 for displacements in x,y,z  (eV/Angst):
          X           Y           Z          XY          YZ          ZX
  --------------------------------------------------------------------------------
  x     0.00000    -0.00000    -0.00000     1.46082    -0.00272    -0.00155
  y     1.50361    -1.55842    -0.00056    -0.00001    -0.00062    -0.00536
  z     0.00000     0.00000     0.00000    -0.00000     0.00579     0.00002

 INTERNAL STRAIN TENSOR FOR ION    2 for displacements in x,y,z  (eV/Angst):
          X           Y           Z          XY          YZ          ZX
  --------------------------------------------------------------------------------
  x    -0.00000     0.00000     0.00000    -1.46082     0.00272     0.00155
  y    -1.50361     1.55842     0.00056     0.00001     0.00062     0.00536
  z    -0.00000    -0.00000    -0.00000     0.00000    -0.00579    -0.00002
 
 INTERNAL STRAIN TENSORS FROM DISPLACED ATOMS
 ============================================

 INTERNAL STRAIN TENSOR FOR ION    1 for displacements in x,y,z  (eV/Angst):
          X           Y           Z          XY          YZ          ZX
  --------------------------------------------------------------------------------
  x    -0.00015    -0.00010     0.00340     1.84606     0.00003    -0.00082
  y     1.82777    -1.86494     0.00068     0.00057     0.00000    -0.00000
  z     0.00101    -0.00065    -0.00106    -0.00000    -0.00007    -0.00000

 INTERNAL STRAIN TENSOR FOR ION    2 for displacements in x,y,z  (eV/Angst):
          X           Y           Z          XY          YZ          ZX
  --------------------------------------------------------------------------------
  x    -0.00041     0.00026     0.00333    -1.85097     0.00000     0.00000
  y    -1.83256     1.87003     0.00036    -0.00085    -0.00000    -0.00000
  z    -0.00023     0.00031    -0.00071     0.00000    -0.00004     0.00000


--------------------------------------------------------------------------------------------------------


 
 Eigenvectors and eigenvalues of the dynamical matrix
 ----------------------------------------------------
 
 
   1 f  =   42.381237 THz   266.289165 2PiTHz 1413.685850 cm-1   175.274770 meV
             X         Y         Z           dx          dy          dz
      0.000000  0.000000  0.000000     0.082085    0.702444    0.000008  
      1.230000  0.710141  0.000000    -0.082059   -0.702211   -0.000005  
 
   2 f  =   42.379924 THz   266.280918 2PiTHz 1413.642066 cm-1   175.269341 meV
             X         Y         Z           dx          dy          dz
      0.000000  0.000000  0.000000     0.702450   -0.082085   -0.000001  
      1.230000  0.710141  0.000000    -0.702205    0.082058    0.000000  
 
   3 f  =   26.119921 THz   164.116301 2PiTHz  871.266741 cm-1   108.023347 meV
             X         Y         Z           dx          dy          dz
      0.000000  0.000000  0.000000     0.000001    0.000006   -0.707162  
      1.230000  0.710141  0.000000     0.000000   -0.000006    0.707051  
 
   4 f/i=    0.002050 THz     0.012878 2PiTHz    0.068367 cm-1     0.008476 meV
             X         Y         Z           dx          dy          dz
      0.000000  0.000000  0.000000    -0.000528    0.010199   -0.706978  
      1.230000  0.710141  0.000000    -0.000528    0.010199   -0.707089  
 
   5 f/i=    0.007027 THz     0.044150 2PiTHz    0.234383 cm-1     0.029060 meV
             X         Y         Z           dx          dy          dz
      0.000000  0.000000  0.000000    -0.052034   -0.704999   -0.010131  
      1.230000  0.710141  0.000000    -0.052053   -0.705233   -0.010133  
 
   6 f/i=    0.007384 THz     0.046394 2PiTHz    0.246298 cm-1     0.030537 meV
             X         Y         Z           dx          dy          dz
      0.000000  0.000000  0.000000     0.705066   -0.052021   -0.001277  
      1.230000  0.710141  0.000000     0.705312   -0.052040   -0.001278  
 


--------------------------------------------------------------------------------------------------------



 ELASTIC MODULI CONTR FROM IONIC RELAXATION (kBar)
 Direction    XX          YY          ZZ          XY          YZ          ZX
 --------------------------------------------------------------------------------
 XX          -1.1600      1.1837     -0.0001     -0.0005     -0.0000     -0.0000
 YY           1.1837     -1.2078      0.0001      0.0006      0.0000      0.0000
 ZZ          -0.0001      0.0001     -0.0000     -0.0000     -0.0000      0.0000
 XY          -0.0005      0.0006     -0.0000     -1.1835     -0.0000      0.0003
 YZ          -0.0000      0.0000     -0.0000     -0.0000     -0.0000      0.0000
 ZX          -0.0000      0.0000      0.0000      0.0003      0.0000     -0.0000
 --------------------------------------------------------------------------------


 TOTAL ELASTIC MODULI (kBar)
 Direction    XX          YY          ZZ          XY          YZ          ZX
 --------------------------------------------------------------------------------
 XX        1674.4803    445.6607      0.5323      0.0047     -0.0077     -0.0844
 YY         445.6607   1675.1658      0.5729      0.0067      0.0091      0.0577
 ZZ           0.5323      0.5729      0.0371     -0.0018      0.0848     -0.2186
 XY           0.0047      0.0067     -0.0018    614.1548     -0.0366     -0.0211
 YZ          -0.0077      0.0091      0.0848     -0.0366     -4.5383      0.0044
 ZX          -0.0844      0.0577     -0.2186     -0.0211      0.0044      1.4917
 --------------------------------------------------------------------------------



--------------------------------------------------------------------------------------------------------


 writing wavefunctions
     LOOP+:  cpu time   71.73: real time   72.63
    4ORBIT:  cpu time    0.00: real time    0.00
 


 total charge     
 
# of ion     s       p       d       tot
----------------------------------------
  1        0.863   1.795   0.000   2.658
  2        0.863   1.795   0.000   2.658
------------------------------------------------
tot        1.727   3.590   0.000   5.317
 


 magnetization (x)
 
# of ion     s       p       d       tot
----------------------------------------
  1        0.000   0.000   0.000   0.000
  2       -0.000  -0.000   0.000  -0.000
------------------------------------------------
tot        0.000   0.000   0.000   0.000
 

 total amount of memory used by VASP on root node    79301. kBytes
========================================================================

   base      :      30000. kBytes
   nonl-proj :      25861. kBytes
   fftplans  :       1864. kBytes
   grid      :       8683. kBytes
   one-center:         12. kBytes
   wavefun   :      12881. kBytes
 
  
  
 General timing and accounting informations for this job:
 ========================================================
  
                  Total CPU time used (sec):     2076.937
                            User time (sec):     2064.509
                          System time (sec):       12.428
                         Elapsed time (sec):     2082.666
  
                   Maximum memory used (kb):      130640.
                   Average memory used (kb):           0.
  
                          Minor page faults:        16014
                          Major page faults:            0
                 Voluntary context switches:         2224
